 DBCSR| CPU Multiplication driver                                            SMM
 DBCSR| Multrec recursion limit                                              512
 DBCSR| Multiplication stack size                                          30000
 DBCSR| Maximum elements for images                                    UNLIMITED
 DBCSR| Multiplicative factor virtual images                                   1
 DBCSR| Use multiplication densification                                       F
 DBCSR| Multiplication size stacks                                             3
 DBCSR| Use memory pool for CPU allocation                                     F
 DBCSR| Number of 3D layers                                               SINGLE
 DBCSR| Use MPI memory allocation                                              F
 DBCSR| Use RMA algorithm                                                      F
 DBCSR| Use Communication thread                                               T
 DBCSR| Communication thread load                                             87
 DBCSR| MPI: My node id                                                        0
 DBCSR| MPI: Number of nodes                                                  36
 DBCSR| OMP: Current number of threads                                         1
 DBCSR| OMP: Max number of threads                                             1
 DBCSR| ACC: Number of devices/node                                            1
 DBCSR| ACC: Number of priority stack-buffers                                 40
 DBCSR| ACC: Number of posterior stack-buffers                                80
 DBCSR| ACC: Number of priority streams                                        4
 DBCSR| ACC: Number of posterior streams                                       4
 DBCSR| ACC: Avoid driver after busy                                           F
 DBCSR| ACC: Process inhomogeneous stacks                                      T
 DBCSR| ACC: Min. flop for processing                                          0
 DBCSR| ACC: Min. flop for sorting                                          4000
 DBCSR| ACC: Number of binning bins                                         4096
 DBCSR| ACC: Size of binning bins                                             16
 DBCSR| Split modifier for TAS multiplication algorithm                  1.0E+00


  **** **** ******  **  PROGRAM STARTED AT               2022-04-06 12:43:57.566
 ***** ** ***  *** **   PROGRAM STARTED ON                              nid03772
 **    ****   ******    PROGRAM STARTED BY                              bbuenomo
 ***** **    ** ** **   PROGRAM PROCESS ID                                  9608
  **** **  *******  **  PROGRAM STARTED IN /scratch/snx3000/bbuenomo/ta/geo-opt/
                                           hyp

 CP2K| version string:                                          CP2K version 9.1
 CP2K| source code revision number:                                  git:d8d7100
 CP2K| cp2kflags: omp libint fftw3 libxc elpa elpa_nvidia_gpu parallel mpi3 scal
 CP2K|            apack pw_cuda smm_dnn smm dbcsr_acc max_contr=4 plumed2 spglib sirius libvori libbqb grid_cuda
 CP2K| is freely available from                            https://www.cp2k.org/
 CP2K| Program compiled at                          Mon 21 Feb 14:02:30 CET 2022
 CP2K| Program compiled on                                              daint102
 CP2K| Program compiled for                                CP2K-9.1-CrayGNU-cuda
 CP2K| Data directory path    /apps/daint/UES/jenkins/7.0.UP03/21.09/daint-gpu/s
 CP2K| Input file name                                         acs_mof_geopt.inp

 GLOBAL| Force Environment number                                              1
 GLOBAL| Basis set file name                                        BASIS_MOLOPT
 GLOBAL| Potential file name                                      GTH_POTENTIALS
 GLOBAL| MM Potential file name                                     MM_POTENTIAL
 GLOBAL| Coordinate file name                     acs_v1-6c_Al_1_1-1B_2OH_Ch.xyz
 GLOBAL| Method name                                                        CP2K
 GLOBAL| Project name                                                     acs_go
 GLOBAL| Run type                                                        GEO_OPT
 GLOBAL| FFT library                                                       FFTW3
 GLOBAL| Diagonalization library                                            ELPA
 GLOBAL| Minimum number of eigenvectors for ELPA usage                        16
 GLOBAL| Orthonormality check for eigenvectors                          DISABLED
 GLOBAL| Matrix multiplication library                                 ScaLAPACK
 GLOBAL| All-to-all communication in single precision                          F
 GLOBAL| FFTs using library dependent lengths                                  F
 GLOBAL| Grid backend                                                       AUTO
 GLOBAL| Global print level                                               MEDIUM
 GLOBAL| MPI I/O enabled                                                       T
 GLOBAL| Total number of message passing processes                            36
 GLOBAL| Number of threads for this process                                    1
 GLOBAL| This output is from process                                           0
 GLOBAL| Stack size for threads created by OpenMP (OMP_STACKSIZE)        default
 GLOBAL| CPU model name                Intel(R) Xeon(R) CPU E5-2690 v3 @ 2.60GHz
 GLOBAL| CPUID                                                              1002

 MEMORY| system memory details [Kb]
 MEMORY|                        rank 0           min           max       average
 MEMORY| MemTotal             65740148      65740148      65740148      65740148
 MEMORY| MemFree              56724368      56620664      56905024      56750018
 MEMORY| Buffers                  7484          5860          7484          6520
 MEMORY| Cached                3221624       3125976       3253408       3200336
 MEMORY| Slab                   274456        263648        274456        267332
 MEMORY| SReclaimable            58340         53440         58340         55092
 MEMORY| MemLikelyFree        60011816      59933784      60090300      60011966


 *** Fundamental physical constants (SI units) ***

 *** Literature: B. J. Mohr and B. N. Taylor,
 ***             CODATA recommended values of the fundamental physical
 ***             constants: 2006, Web Version 5.1
 ***             http://physics.nist.gov/constants

 Speed of light in vacuum [m/s]                             2.99792458000000E+08
 Magnetic constant or permeability of vacuum [N/A**2]       1.25663706143592E-06
 Electric constant or permittivity of vacuum [F/m]          8.85418781762039E-12
 Planck constant (h) [J*s]                                  6.62606896000000E-34
 Planck constant (h-bar) [J*s]                              1.05457162825177E-34
 Elementary charge [C]                                      1.60217648700000E-19
 Electron mass [kg]                                         9.10938215000000E-31
 Electron g factor [ ]                                     -2.00231930436220E+00
 Proton mass [kg]                                           1.67262163700000E-27
 Fine-structure constant                                    7.29735253760000E-03
 Rydberg constant [1/m]                                     1.09737315685270E+07
 Avogadro constant [1/mol]                                  6.02214179000000E+23
 Boltzmann constant [J/K]                                   1.38065040000000E-23
 Atomic mass unit [kg]                                      1.66053878200000E-27
 Bohr radius [m]                                            5.29177208590000E-11

 *** Conversion factors ***

 [u] -> [a.u.]                                              1.82288848426455E+03
 [Angstrom] -> [Bohr] = [a.u.]                              1.88972613288564E+00
 [a.u.] = [Bohr] -> [Angstrom]                              5.29177208590000E-01
 [a.u.] -> [s]                                              2.41888432650478E-17
 [a.u.] -> [fs]                                             2.41888432650478E-02
 [a.u.] -> [J]                                              4.35974393937059E-18
 [a.u.] -> [N]                                              8.23872205491840E-08
 [a.u.] -> [K]                                              3.15774647902944E+05
 [a.u.] -> [kJ/mol]                                         2.62549961709828E+03
 [a.u.] -> [kcal/mol]                                       6.27509468713739E+02
 [a.u.] -> [Pa]                                             2.94210107994716E+13
 [a.u.] -> [bar]                                            2.94210107994716E+08
 [a.u.] -> [atm]                                            2.90362800883016E+08
 [a.u.] -> [eV]                                             2.72113838565563E+01
 [a.u.] -> [Hz]                                             6.57968392072181E+15
 [a.u.] -> [1/cm] (wave numbers)                            2.19474631370540E+05
 [a.u./Bohr**2] -> [1/cm]                                   5.14048714338585E+03
 

 CELL_TOP| Volume [angstrom^3]:                                      3375.016460
 CELL_TOP| Vector a [angstrom    17.002     0.000     0.000   |a| =    17.001520
 CELL_TOP| Vector b [angstrom    -8.501    14.724     0.000   |b| =    17.001620
 CELL_TOP| Vector c [angstrom     0.000     0.000    13.482   |c| =    13.482400
 CELL_TOP| Angle (b,c), alpha [degree]:                                90.000000
 CELL_TOP| Angle (a,c), beta  [degree]:                                90.000000
 CELL_TOP| Angle (a,b), gamma [degree]:                               120.000000
 CELL_TOP| Numerically orthorhombic:                                          NO

 GENERATE|  Preliminary Number of Bonds generated:                             0
 GENERATE|  Achieved consistency in connectivity generation.

 CELL| Volume [angstrom^3]:                                          3375.016460
 CELL| Vector a [angstrom]:      17.002     0.000     0.000   |a| =    17.001520
 CELL| Vector b [angstrom]:      -8.501    14.724     0.000   |b| =    17.001620
 CELL| Vector c [angstrom]:       0.000     0.000    13.482   |c| =    13.482400
 CELL| Angle (b,c), alpha [degree]:                                    90.000000
 CELL| Angle (a,c), beta  [degree]:                                    90.000000
 CELL| Angle (a,b), gamma [degree]:                                   120.000000
 CELL| Numerically orthorhombic:                                              NO

 CELL_REF| Volume [angstrom^3]:                                      3375.016460
 CELL_REF| Vector a [angstrom    17.002     0.000     0.000   |a| =    17.001520
 CELL_REF| Vector b [angstrom    -8.501    14.724     0.000   |b| =    17.001620
 CELL_REF| Vector c [angstrom     0.000     0.000    13.482   |c| =    13.482400
 CELL_REF| Angle (b,c), alpha [degree]:                                90.000000
 CELL_REF| Angle (a,c), beta  [degree]:                                90.000000
 CELL_REF| Angle (a,b), gamma [degree]:                               120.000000
 CELL_REF| Numerically orthorhombic:                                          NO

 *******************************************************************************
 *******************************************************************************
 **                                                                           **
 **     #####                         ##              ##                      **
 **    ##   ##            ##          ##              ##                      **
 **   ##     ##                       ##            ######                    **
 **   ##     ##  ##   ##  ##   #####  ##  ##   ####   ##    #####    #####    **
 **   ##     ##  ##   ##  ##  ##      ## ##   ##      ##   ##   ##  ##   ##   **
 **   ##  ## ##  ##   ##  ##  ##      ####     ###    ##   ######   ######    **
 **    ##  ###   ##   ##  ##  ##      ## ##      ##   ##   ##       ##        **
 **     #######   #####   ##   #####  ##  ##  ####    ##    #####   ##        **
 **           ##                                                    ##        **
 **                                                                           **
 **                                                ... make the atoms dance   **
 **                                                                           **
 **            Copyright (C) by CP2K developers group (2000-2021)             **
 **                      J. Chem. Phys. 152, 194103 (2020)                    **
 **                                                                           **
 *******************************************************************************

 DFT| Spin restricted Kohn-Sham (RKS) calculation                            RKS
 DFT| Multiplicity                                                             1
 DFT| Number of spin states                                                    1
 DFT| Charge                                                                   0
 DFT| Self-interaction correction (SIC)                                       NO
 DFT| Cutoffs: density                                              1.000000E-10
 DFT|          gradient                                             1.000000E-10
 DFT|          tau                                                  1.000000E-10
 DFT|          cutoff_smoothing_range                               0.000000E+00
 DFT| XC density smoothing                                                  NONE
 DFT| XC derivatives                                                          PW
 FUNCTIONAL| ROUTINE=NEW
 FUNCTIONAL| PBE:
 FUNCTIONAL| J.P.Perdew, K.Burke, M.Ernzerhof, Phys. Rev. Letter, vol. 77, n 18,
 FUNCTIONAL|  pp. 3865-3868, (1996){spin unpolarized}                           
 vdW POTENTIAL|                                                   Pair Potential
 vdW POTENTIAL|          DFT-D3 (Version 3.1)
 vdW POTENTIAL|          Potential Form: S. Grimme et al, JCP 132: 154104 (2010)
 vdW POTENTIAL|          BJ Damping: S. Grimme et al, JCC 32: 1456 (2011)
 vdW POTENTIAL|          Cutoff Radius [Bohr]:                             18.90
 vdW POTENTIAL|          s6 Scaling Factor:                               1.0000
 vdW POTENTIAL|          a1 Damping Factor:                               0.4289
 vdW POTENTIAL|          s8 Scaling Factor:                               0.7875
 vdW POTENTIAL|          a2 Damping Factor:                               4.4407
 vdW POTENTIAL|          Cutoff for CN calculation:                   0.1000E-05

 QS| Method:                                                                 GPW
 QS| Density plane wave grid type                        NON-SPHERICAL FULLSPACE
 QS| Number of grid levels:                                                    4
 QS| Density cutoff [a.u.]:                                                300.0
 QS| Multi grid cutoff [a.u.]: 1) grid level                               300.0
 QS|                           2) grid level                               100.0
 QS|                           3) grid level                                33.3
 QS|                           4) grid level                                11.1
 QS| Grid level progression factor:                                          3.0
 QS| Relative density cutoff [a.u.]:                                        30.0
 QS| Interaction thresholds: eps_pgf_orb:                                1.0E-05
 QS|                         eps_filter_matrix:                          0.0E+00
 QS|                         eps_core_charge:                            1.0E-12
 QS|                         eps_rho_gspace:                             1.0E-10
 QS|                         eps_rho_rspace:                             1.0E-10
 QS|                         eps_gvg_rspace:                             1.0E-05
 QS|                         eps_ppl:                                    1.0E-02
 QS|                         eps_ppnl:                                   1.0E-07


 ATOMIC KIND INFORMATION

  1. Atomic kind: O                                     Number of atoms:      38

     Orbital Basis Set                                           DZVP-MOLOPT-GTH

       Number of orbital shell sets:                                           1
       Number of orbital shells:                                               5
       Number of primitive Cartesian functions:                                7
       Number of Cartesian basis functions:                                   14
       Number of spherical basis functions:                                   13
       Norm type:                                                              2

       Normalised Cartesian orbitals:

                        Set   Shell   Orbital            Exponent    Coefficient

                          1       1    2s               12.015955      -0.284499
                                                         5.108150      -0.322498
                                                         2.048398       0.148191
                                                         0.832382       0.295475
                                                         0.352316       0.150829
                                                         0.142977       0.015788
                                                         0.046761      -0.000019

                          1       2    3s               12.015955       0.725622
                                                         5.108150       0.644384
                                                         2.048398      -0.157350
                                                         0.832382      -0.853528
                                                         0.352316       0.146068
                                                         0.142977       0.153978
                                                         0.046761       0.000658

                          1       3    3px              12.015955       1.192141
                                                         5.108150       1.354170
                                                         2.048398       0.897267
                                                         0.832382       0.408839
                                                         0.352316       0.116648
                                                         0.142977       0.022184
                                                         0.046761       0.000308
                          1       3    3py              12.015955       1.192141
                                                         5.108150       1.354170
                                                         2.048398       0.897267
                                                         0.832382       0.408839
                                                         0.352316       0.116648
                                                         0.142977       0.022184
                                                         0.046761       0.000308
                          1       3    3pz              12.015955       1.192141
                                                         5.108150       1.354170
                                                         2.048398       0.897267
                                                         0.832382       0.408839
                                                         0.352316       0.116648
                                                         0.142977       0.022184
                                                         0.046761       0.000308

                          1       4    4px              12.015955      -1.062381
                                                         5.108150      -1.285791
                                                         2.048398      -0.727000
                                                         0.832382      -0.522764
                                                         0.352316       0.182681
                                                         0.142977       0.087560
                                                         0.046761       0.000981
                          1       4    4py              12.015955      -1.062381
                                                         5.108150      -1.285791
                                                         2.048398      -0.727000
                                                         0.832382      -0.522764
                                                         0.352316       0.182681
                                                         0.142977       0.087560
                                                         0.046761       0.000981
                          1       4    4pz              12.015955      -1.062381
                                                         5.108150      -1.285791
                                                         2.048398      -0.727000
                                                         0.832382      -0.522764
                                                         0.352316       0.182681
                                                         0.142977       0.087560
                                                         0.046761       0.000981

                          1       5    4dx2             12.015955       1.125955
                                                         5.108150       1.160468
                                                         2.048398       0.999335
                                                         0.832382       0.756334
                                                         0.352316       0.048604
                                                         0.142977       0.010378
                                                         0.046761      -0.000027
                          1       5    4dxy             12.015955       1.950212
                                                         5.108150       2.009990
                                                         2.048398       1.730899
                                                         0.832382       1.310009
                                                         0.352316       0.084185
                                                         0.142977       0.017974
                                                         0.046761      -0.000046
                          1       5    4dxz             12.015955       1.950212
                                                         5.108150       2.009990
                                                         2.048398       1.730899
                                                         0.832382       1.310009
                                                         0.352316       0.084185
                                                         0.142977       0.017974
                                                         0.046761      -0.000046
                          1       5    4dy2             12.015955       1.125955
                                                         5.108150       1.160468
                                                         2.048398       0.999335
                                                         0.832382       0.756334
                                                         0.352316       0.048604
                                                         0.142977       0.010378
                                                         0.046761      -0.000027
                          1       5    4dyz             12.015955       1.950212
                                                         5.108150       2.009990
                                                         2.048398       1.730899
                                                         0.832382       1.310009
                                                         0.352316       0.084185
                                                         0.142977       0.017974
                                                         0.046761      -0.000046
                          1       5    4dz2             12.015955       1.125955
                                                         5.108150       1.160468
                                                         2.048398       0.999335
                                                         0.832382       0.756334
                                                         0.352316       0.048604
                                                         0.142977       0.010378
                                                         0.046761      -0.000027

     Auxiliary Fit Basis Set                                               pFIT3

       Number of orbital shell sets:                                           7
       Number of orbital shells:                                               7
       Number of primitive Cartesian functions:                                7
       Number of Cartesian basis functions:                                   18
       Number of spherical basis functions:                                   17
       Norm type:                                                              2

       Normalised Cartesian orbitals:

                        Set   Shell   Orbital            Exponent    Coefficient

                          1       1    1s                0.270610       0.267404

                          2       1    1s                0.884930       0.650267

                          3       1    1s                8.504090       3.549204

                          4       1    1px               0.310400       0.330250
                          4       1    1py               0.310400       0.330250
                          4       1    1pz               0.310400       0.330250

                          5       1    1px               1.382560       2.136954
                          5       1    1py               1.382560       2.136954
                          5       1    1pz               1.382560       2.136954

                          6       1    1px               6.082640      13.616178
                          6       1    1py               6.082640      13.616178
                          6       1    1pz               6.082640      13.616178

                          7       1    1dx2              1.000000       1.645923
                          7       1    1dxy              1.000000       2.850822
                          7       1    1dxz              1.000000       2.850822
                          7       1    1dy2              1.000000       1.645923
                          7       1    1dyz              1.000000       2.850822
                          7       1    1dz2              1.000000       1.645923

       Atomic covalent radius [Angstrom]:                                  0.730

       Atomic van der Waals radius [Angstrom]:                             1.520

     GTH Potential information for                                    GTH-PBE-q6

       Description:                       Goedecker-Teter-Hutter pseudopotential
                                           Goedecker et al., PRB 54, 1703 (1996)
                                          Hartwigsen et al., PRB 58, 3641 (1998)
                                                      Krack, TCA 114, 145 (2005)

       Gaussian exponent of the core charge distribution:               8.360253
       Electronic configuration (s p d ...):                               2   4

       Parameters of the local part of the GTH pseudopotential:

                          rloc        C1          C2          C3          C4
                        0.244554  -16.667215    2.487311

       Parameters of the non-local part of the GTH pseudopotential:

                   l      r(l)      h(i,j,l)

                   0    0.220956   18.337458
                   1    0.211332

  2. Atomic kind: C                                     Number of atoms:      48

     Orbital Basis Set                                     DZVP-MOLOPT-SR-GTH-q4

       Number of orbital shell sets:                                           1
       Number of orbital shells:                                               5
       Number of primitive Cartesian functions:                                5
       Number of Cartesian basis functions:                                   14
       Number of spherical basis functions:                                   13
       Norm type:                                                              2

       Normalised Cartesian orbitals:

                        Set   Shell   Orbital            Exponent    Coefficient

                          1       1    2s                5.605331       0.322515
                                                         2.113016       0.213043
                                                         0.769911      -0.209686
                                                         0.348157      -0.219794
                                                         0.128212      -0.022789

                          1       2    3s                5.605331       0.552234
                                                         2.113016       0.082072
                                                         0.769911       0.007843
                                                         0.348157       0.136893
                                                         0.128212       0.074283

                          1       3    3px               5.605331      -0.703879
                                                         2.113016      -0.642521
                                                         0.769911      -0.374851
                                                         0.348157      -0.139743
                                                         0.128212      -0.027849
                          1       3    3py               5.605331      -0.703879
                                                         2.113016      -0.642521
                                                         0.769911      -0.374851
                                                         0.348157      -0.139743
                                                         0.128212      -0.027849
                          1       3    3pz               5.605331      -0.703879
                                                         2.113016      -0.642521
                                                         0.769911      -0.374851
                                                         0.348157      -0.139743
                                                         0.128212      -0.027849

                          1       4    4px               5.605331      -0.480376
                                                         2.113016      -0.552894
                                                         0.769911      -0.316145
                                                         0.348157       0.210505
                                                         0.128212       0.076095
                          1       4    4py               5.605331      -0.480376
                                                         2.113016      -0.552894
                                                         0.769911      -0.316145
                                                         0.348157       0.210505
                                                         0.128212       0.076095
                          1       4    4pz               5.605331      -0.480376
                                                         2.113016      -0.552894
                                                         0.769911      -0.316145
                                                         0.348157       0.210505
                                                         0.128212       0.076095

                          1       5    4dx2              5.605331       0.640026
                                                         2.113016       0.274300
                                                         0.769911       0.446711
                                                         0.348157       0.028674
                                                         0.128212       0.029790
                          1       5    4dxy              5.605331       1.108557
                                                         2.113016       0.475102
                                                         0.769911       0.773726
                                                         0.348157       0.049666
                                                         0.128212       0.051599
                          1       5    4dxz              5.605331       1.108557
                                                         2.113016       0.475102
                                                         0.769911       0.773726
                                                         0.348157       0.049666
                                                         0.128212       0.051599
                          1       5    4dy2              5.605331       0.640026
                                                         2.113016       0.274300
                                                         0.769911       0.446711
                                                         0.348157       0.028674
                                                         0.128212       0.029790
                          1       5    4dyz              5.605331       1.108557
                                                         2.113016       0.475102
                                                         0.769911       0.773726
                                                         0.348157       0.049666
                                                         0.128212       0.051599
                          1       5    4dz2              5.605331       0.640026
                                                         2.113016       0.274300
                                                         0.769911       0.446711
                                                         0.348157       0.028674
                                                         0.128212       0.029790

     Auxiliary Fit Basis Set                                               pFIT3

       Number of orbital shell sets:                                           7
       Number of orbital shells:                                               7
       Number of primitive Cartesian functions:                                7
       Number of Cartesian basis functions:                                   18
       Number of spherical basis functions:                                   17
       Norm type:                                                              2

       Normalised Cartesian orbitals:

                        Set   Shell   Orbital            Exponent    Coefficient

                          1       1    1s                0.143490       0.166160

                          2       1    1s                0.450840       0.392127

                          3       1    1s                4.420950       2.172935

                          4       1    1px               0.152150       0.135450
                          4       1    1py               0.152150       0.135450
                          4       1    1pz               0.152150       0.135450

                          5       1    1px               0.670820       0.865362
                          5       1    1py               0.670820       0.865362
                          5       1    1pz               0.670820       0.865362

                          6       1    1px               3.053900       5.754513
                          6       1    1py               3.053900       5.754513
                          6       1    1pz               3.053900       5.754513

                          7       1    1dx2              0.800000       1.113825
                          7       1    1dxy              0.800000       1.929201
                          7       1    1dxz              0.800000       1.929201
                          7       1    1dy2              0.800000       1.113825
                          7       1    1dyz              0.800000       1.929201
                          7       1    1dz2              0.800000       1.113825

       Atomic covalent radius [Angstrom]:                                  0.770

       Atomic van der Waals radius [Angstrom]:                             1.700

     GTH Potential information for                                    GTH-PBE-q4

       Description:                       Goedecker-Teter-Hutter pseudopotential
                                           Goedecker et al., PRB 54, 1703 (1996)
                                          Hartwigsen et al., PRB 58, 3641 (1998)
                                                      Krack, TCA 114, 145 (2005)

       Gaussian exponent of the core charge distribution:               4.364419
       Electronic configuration (s p d ...):                               2   2

       Parameters of the local part of the GTH pseudopotential:

                          rloc        C1          C2          C3          C4
                        0.338471   -8.803674    1.339211

       Parameters of the non-local part of the GTH pseudopotential:

                   l      r(l)      h(i,j,l)

                   0    0.302576    9.622487
                   1    0.291507

  3. Atomic kind: Al                                    Number of atoms:       6

     Orbital Basis Set                                        TZVP-MOLOPT-SR-GTH

       Number of orbital shell sets:                                           1
       Number of orbital shells:                                               7
       Number of primitive Cartesian functions:                                4
       Number of Cartesian basis functions:                                   18
       Number of spherical basis functions:                                   17
       Norm type:                                                              2

       Normalised Cartesian orbitals:

                        Set   Shell   Orbital            Exponent    Coefficient

                          1       1    2s                1.212902       0.246198
                                                         0.454181       0.177619
                                                         0.242419      -0.292403
                                                         0.078269      -0.036643

                          1       2    3s                1.212902       0.031948
                                                         0.454181      -0.030166
                                                         0.242419       0.083257
                                                         0.078269      -0.128826

                          1       3    4s                1.212902       0.808699
                                                         0.454181      -0.058969
                                                         0.242419       0.040660
                                                         0.078269       0.009096

                          1       4    3px               1.212902       0.097003
                                                         0.454181       0.030558
                                                         0.242419      -0.180998
                                                         0.078269      -0.023736
                          1       4    3py               1.212902       0.097003
                                                         0.454181       0.030558
                                                         0.242419      -0.180998
                                                         0.078269      -0.023736
                          1       4    3pz               1.212902       0.097003
                                                         0.454181       0.030558
                                                         0.242419      -0.180998
                                                         0.078269      -0.023736

                          1       5    4px               1.212902      -0.253113
                                                         0.454181       0.115031
                                                         0.242419       0.175992
                                                         0.078269      -0.078757
                          1       5    4py               1.212902      -0.253113
                                                         0.454181       0.115031
                                                         0.242419       0.175992
                                                         0.078269      -0.078757
                          1       5    4pz               1.212902      -0.253113
                                                         0.454181       0.115031
                                                         0.242419       0.175992
                                                         0.078269      -0.078757

                          1       6    5px               1.212902      -0.029156
                                                         0.454181       0.503504
                                                         0.242419      -0.002226
                                                         0.078269       0.008871
                          1       6    5py               1.212902      -0.029156
                                                         0.454181       0.503504
                                                         0.242419      -0.002226
                                                         0.078269       0.008871
                          1       6    5pz               1.212902      -0.029156
                                                         0.454181       0.503504
                                                         0.242419      -0.002226
                                                         0.078269       0.008871

                          1       7    4dx2              1.212902       0.395985
                                                         0.454181       0.099381
                                                         0.242419       0.069868
                                                         0.078269       0.005909
                          1       7    4dxy              1.212902       0.685866
                                                         0.454181       0.172133
                                                         0.242419       0.121014
                                                         0.078269       0.010235
                          1       7    4dxz              1.212902       0.685866
                                                         0.454181       0.172133
                                                         0.242419       0.121014
                                                         0.078269       0.010235
                          1       7    4dy2              1.212902       0.395985
                                                         0.454181       0.099381
                                                         0.242419       0.069868
                                                         0.078269       0.005909
                          1       7    4dyz              1.212902       0.685866
                                                         0.454181       0.172133
                                                         0.242419       0.121014
                                                         0.078269       0.010235
                          1       7    4dz2              1.212902       0.395985
                                                         0.454181       0.099381
                                                         0.242419       0.069868
                                                         0.078269       0.005909

     Auxiliary Fit Basis Set                                               cFIT8

       Number of orbital shell sets:                                           4
       Number of orbital shells:                                               4
       Number of primitive Cartesian functions:                                8
       Number of Cartesian basis functions:                                    8
       Number of spherical basis functions:                                    8
       Norm type:                                                              2

       Normalised Cartesian orbitals:

                        Set   Shell   Orbital            Exponent    Coefficient

                          1       1    1s                0.078277       0.105471

                          2       1    1s                0.205581      -0.273018
                                                         1.123843       0.481388
                                                         2.242430      -0.063738

                          3       1    1px               0.078278       0.059018
                          3       1    1py               0.078278       0.059018
                          3       1    1pz               0.078278       0.059018

                          4       1    1px               0.245450       0.244825
                                                         0.547270       0.035465
                                                         1.225940      -0.148550
                          4       1    1py               0.245450       0.244825
                                                         0.547270       0.035465
                                                         1.225940      -0.148550
                          4       1    1pz               0.245450       0.244825
                                                         0.547270       0.035465
                                                         1.225940      -0.148550

       Atomic covalent radius [Angstrom]:                                  1.180

       Atomic van der Waals radius [Angstrom]:                             1.840

     GTH Potential information for                                    GTH-PBE-q3

       Description:                       Goedecker-Teter-Hutter pseudopotential
                                           Goedecker et al., PRB 54, 1703 (1996)
                                          Hartwigsen et al., PRB 58, 3641 (1998)
                                                      Krack, TCA 114, 145 (2005)

       Gaussian exponent of the core charge distribution:               2.469136
       Electronic configuration (s p d ...):                               2   1

       Parameters of the local part of the GTH pseudopotential:

                          rloc        C1          C2          C3          C4
                        0.450000   -7.554761

       Parameters of the non-local part of the GTH pseudopotential:

                   l      r(l)      h(i,j,l)

                   0    0.487435    6.959938   -1.888836
                                   -1.888836    2.438477
                   1    0.562189    1.865299

  4. Atomic kind: H                                     Number of atoms:      24

     Orbital Basis Set                                     DZVP-MOLOPT-SR-GTH-q1

       Number of orbital shell sets:                                           1
       Number of orbital shells:                                               3
       Number of primitive Cartesian functions:                                5
       Number of Cartesian basis functions:                                    5
       Number of spherical basis functions:                                    5
       Norm type:                                                              2

       Normalised Cartesian orbitals:

                        Set   Shell   Orbital            Exponent    Coefficient

                          1       1    2s               10.068468      -0.133023
                                                         2.680223      -0.177618
                                                         0.791502      -0.258419
                                                         0.239116      -0.107525
                                                         0.082193      -0.014019

                          1       2    3s               10.068468       0.344673
                                                         2.680223       1.819821
                                                         0.791502      -0.999069
                                                         0.239116       0.017430
                                                         0.082193       0.082660

                          1       3    3px              10.068468       0.155326
                                                         2.680223       0.367157
                                                         0.791502       0.311480
                                                         0.239116       0.080105
                                                         0.082193       0.033440
                          1       3    3py              10.068468       0.155326
                                                         2.680223       0.367157
                                                         0.791502       0.311480
                                                         0.239116       0.080105
                                                         0.082193       0.033440
                          1       3    3pz              10.068468       0.155326
                                                         2.680223       0.367157
                                                         0.791502       0.311480
                                                         0.239116       0.080105
                                                         0.082193       0.033440

     Auxiliary Fit Basis Set                                               pFIT3

       Number of orbital shell sets:                                           4
       Number of orbital shells:                                               4
       Number of primitive Cartesian functions:                                4
       Number of Cartesian basis functions:                                    6
       Number of spherical basis functions:                                    6
       Norm type:                                                              2

       Normalised Cartesian orbitals:

                        Set   Shell   Orbital            Exponent    Coefficient

                          1       1    1s                0.113290       0.139173

                          2       1    1s                0.551250       0.455955

                          3       1    1s                3.585030       1.856862

                          4       1    1px               1.000000       1.425411
                          4       1    1py               1.000000       1.425411
                          4       1    1pz               1.000000       1.425411

       Atomic covalent radius [Angstrom]:                                  0.320

       Atomic van der Waals radius [Angstrom]:                             1.090

     GTH Potential information for                                    GTH-PBE-q1

       Description:                       Goedecker-Teter-Hutter pseudopotential
                                           Goedecker et al., PRB 54, 1703 (1996)
                                          Hartwigsen et al., PRB 58, 3641 (1998)
                                                      Krack, TCA 114, 145 (2005)

       Gaussian exponent of the core charge distribution:              12.500000
       Electronic configuration (s p d ...):                                   1

       Parameters of the local part of the GTH pseudopotential:

                          rloc        C1          C2          C3          C4
                        0.200000   -4.178900    0.724463


 MOLECULE KIND INFORMATION


 All atoms are their own molecule, skipping detailed information


 TOTAL NUMBERS AND MAXIMUM NUMBERS

  Total number of            - Atomic kinds:                                   4
                             - Atoms:                                        116
                             - Shell sets:                                   116
                             - Shells:                                       544
                             - Primitive Cartesian functions:                650
                             - Cartesian basis functions:                   1432
                             - Spherical basis functions:                   1340

  Maximum angular momentum of- Orbital basis functions:                        2
                             - Local part of the GTH pseudopotential:          2
                             - Non-local part of the GTH pseudopotential:      2

  AUX_FIT ADMM-Basis: 
  Total number of            - Shell sets:                                   722
                             - Shells:                                       722
                             - Primitive Cartesian functions:                746
                             - Cartesian basis functions:                   1740
                             - Spherical basis functions:                   1654
                               Maximum angular momentum                        2


 MODULE QUICKSTEP:  ATOMIC COORDINATES IN angstrom

 Atom  Kind  Element       X           Y           Z          Z(eff)       Mass
    1   1 O    8       1.211660    7.832050   11.365520       6.0000     15.9994
    2   1 O    8      -2.325520    9.758500   11.365520       6.0000     15.9994
    3   1 O    8       1.111310   11.858450   11.365520       6.0000     15.9994
    4   1 O    8       2.323880    9.758430   11.365520       6.0000     15.9994
    5   1 O    8      -1.113090   11.858480   11.365520       6.0000     15.9994
    6   1 O    8      -1.213340    7.832080   11.365520       6.0000     15.9994
    7   2 C    6       2.139470    8.580640   11.809120       4.0000     12.0107
    8   2 C    6      -2.141130    8.580690   11.809120       4.0000     12.0107
    9   2 C    6      -0.000880   12.287870   11.809120       4.0000     12.0107
   10   1 O    8       1.211660    7.832050    8.858120       6.0000     15.9994
   11   1 O    8      -2.325520    9.758500    8.858120       6.0000     15.9994
   12   1 O    8       1.111310   11.858450    8.858120       6.0000     15.9994
   13   1 O    8       2.323880    9.758430    8.858120       6.0000     15.9994
   14   1 O    8      -1.113090   11.858480    8.858120       6.0000     15.9994
   15   1 O    8      -1.213340    7.832080    8.858120       6.0000     15.9994
   16   3 Al  13      -0.000940    8.081870   10.111920       3.0000     26.9815
   17   3 Al  13      -1.503100   10.683690   10.111920       3.0000     26.9815
   18   3 Al  13       1.501300   10.683650   10.111920       3.0000     26.9815
   19   1 O    8      -0.000920    9.816470   10.111920       6.0000     15.9994
   20   2 C    6       2.139470    8.580640    8.414520       4.0000     12.0107
   21   2 C    6      -2.141130    8.580690    8.414520       4.0000     12.0107
   22   2 C    6      -0.000880   12.287870    8.414520       4.0000     12.0107
   23   1 O    8       7.287400    6.892810    4.624310       6.0000     15.9994
   24   1 O    8      10.824580    4.966360    4.624310       6.0000     15.9994
   25   1 O    8       7.387750    2.866410    4.624310       6.0000     15.9994
   26   1 O    8       6.175180    4.966420    4.624310       6.0000     15.9994
   27   1 O    8       9.612150    2.866380    4.624310       6.0000     15.9994
   28   1 O    8       9.712400    6.892780    4.624310       6.0000     15.9994
   29   2 C    6       6.359590    6.144220    5.067910       4.0000     12.0107
   30   2 C    6      10.640190    6.144160    5.067910       4.0000     12.0107
   31   2 C    6       8.499940    2.436990    5.067910       4.0000     12.0107
   32   1 O    8       7.287400    6.892810    2.116910       6.0000     15.9994
   33   1 O    8      10.824580    4.966360    2.116910       6.0000     15.9994
   34   1 O    8       7.387750    2.866410    2.116910       6.0000     15.9994
   35   1 O    8       6.175180    4.966420    2.116910       6.0000     15.9994
   36   1 O    8       9.612150    2.866380    2.116910       6.0000     15.9994
   37   1 O    8       9.712400    6.892780    2.116910       6.0000     15.9994
   38   3 Al  13       8.500000    6.642990    3.370710       3.0000     26.9815
   39   3 Al  13      10.002160    4.041170    3.370710       3.0000     26.9815
   40   3 Al  13       6.997760    4.041210    3.370710       3.0000     26.9815
   41   1 O    8       8.499980    4.908390    3.370710       6.0000     15.9994
   42   2 C    6       6.359590    6.144220    1.673310       4.0000     12.0107
   43   2 C    6      10.640190    6.144160    1.673310       4.0000     12.0107
   44   2 C    6       8.499940    2.436990    1.673310       4.0000     12.0107
   45   2 C    6      -3.240540    7.945950   12.680950       4.0000     12.0107
   46   2 C    6      -4.049520    8.721930    0.038850       4.0000     12.0107
   47   2 C    6      11.949240    8.175180    0.838850       4.0000     12.0107
   48   2 C    6      11.739600    6.778910    0.801480       4.0000     12.0107
   49   2 C    6      12.548580    6.002930   13.443570       4.0000     12.0107
   50   2 C    6      -3.450180    6.549680   12.643580       4.0000     12.0107
   51   4 H    1      -3.867730    9.793660    0.049200       1.0000      1.0079
   52   1 O    8      11.183130    8.965940    1.643480       6.0000     15.9994
   53   4 H    1      12.366790    4.931190   13.433220       1.0000      1.0079
   54   1 O    8      -2.684070    5.758910   11.838950       6.0000     15.9994
   55   4 H    1      14.036170    4.835550   11.940370       1.0000      1.0079
   56   4 H    1      -5.537120    9.889300    1.542050       1.0000      1.0079
   57   2 C    6      11.739600    6.778910    5.939740       4.0000     12.0107
   58   2 C    6      11.872050    6.463040    7.298200       4.0000     12.0107
   59   2 C    6      12.857350    7.021500    8.111690       4.0000     12.0107
   60   2 C    6      -3.240540    7.945950    7.542690       4.0000     12.0107
   61   2 C    6      -3.372990    8.261820    6.184220       4.0000     12.0107
   62   2 C    6      -4.358290    7.703360    5.370730       4.0000     12.0107
   63   4 H    1      11.164120    5.749080    7.711560       1.0000      1.0079
   64   1 O    8      12.952380    6.687090    9.430330       6.0000     15.9994
   65   4 H    1      -2.665060    8.975770    5.770870       1.0000      1.0079
   66   1 O    8      -4.453320    8.037770    4.052100       6.0000     15.9994
   67   4 H    1      -3.757900    8.679510    3.836310       1.0000      1.0079
   68   4 H    1      12.256960    6.045350    9.646110       1.0000      1.0079
   69   2 C    6       8.499930    1.167540    5.939730       4.0000     12.0107
   70   2 C    6       7.365650    0.773490    6.661450       4.0000     12.0107
   71   2 C    6      -1.164470   14.353460    7.458380       4.0000     12.0107
   72   2 C    6      -0.000870   13.557320    7.542700       4.0000     12.0107
   73   2 C    6       1.133410   13.951360    6.820970       4.0000     12.0107
   74   2 C    6       9.663530    0.371400    6.024040       4.0000     12.0107
   75   4 H    1       6.483480    1.403450    6.579550       1.0000      1.0079
   76   1 O    8      -2.289640   14.004590    8.145360       6.0000     15.9994
   77   4 H    1       2.015580   13.321400    6.902880       1.0000      1.0079
   78   1 O    8      10.788700    0.720270    5.337070       6.0000     15.9994
   79   4 H    1      11.483070    0.064850    5.511110       1.0000      1.0079
   80   4 H    1      -2.984010   14.660010    7.971320       1.0000      1.0079
   81   2 C    6      -0.000870   13.557320   12.680940       4.0000     12.0107
   82   2 C    6       1.103500   14.418350   12.722680       4.0000     12.0107
   83   2 C    6       9.632670    0.850430    0.019660       4.0000     12.0107
   84   2 C    6       8.499930    1.167540    0.801490       4.0000     12.0107
   85   2 C    6       7.395560    0.306500    0.759740       4.0000     12.0107
   86   2 C    6      -1.133610   13.874430   13.462770       4.0000     12.0107
   87   4 H    1       1.962340   14.151580   12.111950       1.0000      1.0079
   88   1 O    8      10.728120    1.662530    0.032130       6.0000     15.9994
   89   4 H    1       6.536720    0.573280    1.370470       1.0000      1.0079
   90   1 O    8      -2.229060   13.062330   13.450300       6.0000     15.9994
   91   4 H    1      -2.905070   13.431880    0.558160       1.0000      1.0079
   92   4 H    1      11.404130    1.292980   12.924260       1.0000      1.0079
   93   2 C    6       5.260220    6.778920    0.801490       4.0000     12.0107
   94   2 C    6       3.934020    6.869100    1.243990       4.0000     12.0107
   95   2 C    6       2.918140    7.438440    0.476990       4.0000     12.0107
   96   2 C    6       3.238840    7.945930   12.680930       4.0000     12.0107
   97   2 C    6       4.565040    7.855750   12.238430       4.0000     12.0107
   98   2 C    6       5.580920    7.286420   13.005430       4.0000     12.0107
   99   4 H    1       3.713630    6.471090    2.231310       1.0000      1.0079
  100   1 O    8       1.639040    7.506940    0.944840       6.0000     15.9994
  101   4 H    1       4.785430    8.253760   11.251120       1.0000      1.0079
  102   1 O    8       6.860020    7.217920   12.537580       6.0000     15.9994
  103   4 H    1       6.895310    7.610980   11.650870       1.0000      1.0079
  104   4 H    1       1.603750    7.113870    1.831550       1.0000      1.0079
  105   2 C    6       5.260220    6.778920    5.939720       4.0000     12.0107
  106   2 C    6       5.510050    7.179220    7.258850       4.0000     12.0107
  107   2 C    6       4.534840    7.756560    8.071310       4.0000     12.0107
  108   2 C    6       3.238840    7.945930    7.542700       4.0000     12.0107
  109   2 C    6       2.989000    7.545640    6.223580       4.0000     12.0107
  110   2 C    6       3.964220    6.968300    5.411110       4.0000     12.0107
  111   4 H    1       6.515380    7.022390    7.641590       1.0000      1.0079
  112   1 O    8       4.819100    8.132680    9.350920       6.0000     15.9994
  113   4 H    1       1.983680    7.702470    5.840830       1.0000      1.0079
  114   1 O    8       3.679960    6.592180    4.131500       6.0000     15.9994
  115   4 H    1       2.750470    6.795400    3.939820       1.0000      1.0079
  116   4 H    1       5.748590    7.929450    9.542610       1.0000      1.0079




 SCF PARAMETERS         Density guess:                                   RESTART
                        --------------------------------------------------------
                        max_scf:                                              50
                        max_scf_history:                                       0
                        max_diis:                                              4
                        --------------------------------------------------------
                        eps_scf:                                        1.00E-06
                        eps_scf_history:                                0.00E+00
                        eps_diis:                                       1.00E-01
                        eps_eigval:                                     1.00E-05
                        --------------------------------------------------------
                        level_shift [a.u.]:                                 0.00
                        --------------------------------------------------------
                        Outer loop SCF in use 
                        No variables optimised in outer loop
                        eps_scf                                         1.00E-06
                        max_scf                                               50
                        No outer loop optimization
                        step_size                                       5.00E-01

 PW_GRID| Information for grid number                                          1
 PW_GRID| Grid distributed over                                    36 processors
 PW_GRID| Real space group dimensions                                    36    1
 PW_GRID| the grid is blocked:                                                NO
 PW_GRID| Cutoff [a.u.]                                                    300.0
 PW_GRID| spherical cutoff:                                                   NO
 PW_GRID|   Bounds   1           -128     127                Points:         256
 PW_GRID|   Bounds   2           -128     127                Points:         256
 PW_GRID|   Bounds   3           -100      99                Points:         200
 PW_GRID| Volume element (a.u.^3)  0.1738E-02     Volume (a.u.^3)     22775.7403
 PW_GRID| Grid span                                                    FULLSPACE
 PW_GRID|   Distribution                         Average         Max         Min
 PW_GRID|   G-Vectors                           364088.9      364288      364032
 PW_GRID|   G-Rays                                1422.2        1423        1422
 PW_GRID|   Real Space Points                   364088.9      409600      358400

 PW_GRID| Information for grid number                                          2
 PW_GRID| Number of the reference grid                                         1
 PW_GRID| Grid distributed over                                    36 processors
 PW_GRID| Real space group dimensions                                    36    1
 PW_GRID| the grid is blocked:                                                NO
 PW_GRID| Cutoff [a.u.]                                                    100.0
 PW_GRID| spherical cutoff:                                                   NO
 PW_GRID|   Bounds   1            -75      74                Points:         150
 PW_GRID|   Bounds   2            -75      74                Points:         150
 PW_GRID|   Bounds   3            -60      59                Points:         120
 PW_GRID| Volume element (a.u.^3)  0.8435E-02     Volume (a.u.^3)     22775.7403
 PW_GRID| Grid span                                                    FULLSPACE
 PW_GRID|   Distribution                         Average         Max         Min
 PW_GRID|   G-Vectors                            75000.0       76050       73500
 PW_GRID|   G-Rays                                 500.0         507         490
 PW_GRID|   Real Space Points                    75000.0       90000       72000

 PW_GRID| Information for grid number                                          3
 PW_GRID| Number of the reference grid                                         1
 PW_GRID| Grid distributed over                                    36 processors
 PW_GRID| Real space group dimensions                                    36    1
 PW_GRID| the grid is blocked:                                                NO
 PW_GRID| Cutoff [a.u.]                                                     33.3
 PW_GRID| spherical cutoff:                                                   NO
 PW_GRID|   Bounds   1            -45      44                Points:          90
 PW_GRID|   Bounds   2            -45      44                Points:          90
 PW_GRID|   Bounds   3            -36      35                Points:          72
 PW_GRID| Volume element (a.u.^3)  0.3905E-01     Volume (a.u.^3)     22775.7403
 PW_GRID| Grid span                                                    FULLSPACE
 PW_GRID|   Distribution                         Average         Max         Min
 PW_GRID|   G-Vectors                            16200.0       16290       16110
 PW_GRID|   G-Rays                                 180.0         181         179
 PW_GRID|   Real Space Points                    16200.0       19440       12960

 PW_GRID| Information for grid number                                          4
 PW_GRID| Number of the reference grid                                         1
 PW_GRID| Grid distributed over                                    36 processors
 PW_GRID| Real space group dimensions                                    36    1
 PW_GRID| the grid is blocked:                                                NO
 PW_GRID| Cutoff [a.u.]                                                     11.1
 PW_GRID| spherical cutoff:                                                   NO
 PW_GRID|   Bounds   1            -27      26                Points:          54
 PW_GRID|   Bounds   2            -27      26                Points:          54
 PW_GRID|   Bounds   3            -20      19                Points:          40
 PW_GRID| Volume element (a.u.^3)  0.1953         Volume (a.u.^3)     22775.7403
 PW_GRID| Grid span                                                    FULLSPACE
 PW_GRID|   Distribution                         Average         Max         Min
 PW_GRID|   G-Vectors                             3240.0        3348        3132
 PW_GRID|   G-Rays                                  60.0          62          58
 PW_GRID|   Real Space Points                     3240.0        4320        2160

 POISSON| Solver                                                        PERIODIC
 POISSON| Periodicity                                                        XYZ

 RS_GRID| Information for grid number                                          1
 RS_GRID|   Bounds   1           -128     127                Points:         256
 RS_GRID|   Bounds   2           -128     127                Points:         256
 RS_GRID|   Bounds   3           -100      99                Points:         200
 RS_GRID| Real space distribution over                                  6 groups
 RS_GRID| Real space distribution along direction                              1
 RS_GRID| Border size                                                         42
 RS_GRID| Real space distribution over                                  6 groups
 RS_GRID| Real space distribution along direction                              2
 RS_GRID| Border size                                                         42
 RS_GRID|   Distribution                         Average         Max         Min
 RS_GRID|   Planes                                 126.7         127         126
 RS_GRID|   Distribution                         Average         Max         Min
 RS_GRID|   Planes                                 126.7         127         126

 RS_GRID| Information for grid number                                          2
 RS_GRID|   Bounds   1            -75      74                Points:         150
 RS_GRID|   Bounds   2            -75      74                Points:         150
 RS_GRID|   Bounds   3            -60      59                Points:         120
 RS_GRID| Real space fully replicated
 RS_GRID| Group size                                                           1

 RS_GRID| Information for grid number                                          3
 RS_GRID|   Bounds   1            -45      44                Points:          90
 RS_GRID|   Bounds   2            -45      44                Points:          90
 RS_GRID|   Bounds   3            -36      35                Points:          72
 RS_GRID| Real space fully replicated
 RS_GRID| Group size                                                           1

 RS_GRID| Information for grid number                                          4
 RS_GRID|   Bounds   1            -27      26                Points:          54
 RS_GRID|   Bounds   2            -27      26                Points:          54
 RS_GRID|   Bounds   3            -20      19                Points:          40
 RS_GRID| Real space fully replicated
 RS_GRID| Group size                                                           1

 BFGS| Use rational function optimization for step estimation:                NO
 BFGS| Use model Hessian for initial guess:                                  YES
 BFGS| Restart Hessian:                                                       NO
 BFGS| Trust radius:                                                       0.472

 *******************************************************************************
 ***                     STARTING GEOMETRY OPTIMIZATION                      ***
 ***                                   BFGS                                  ***
 *******************************************************************************

 Number of electrons:                                                        462
 Number of occupied orbitals:                                                231
 Number of molecular orbitals:                                               231

 Number of orbital functions:                                               1340
 Number of independent orbital functions:                                   1340

 Extrapolation method: initial_guess


 SCF WAVEFUNCTION OPTIMIZATION

  ----------------------------------- OT ---------------------------------------
  Minimizer      : DIIS                : direct inversion
                                         in the iterative subspace
                                         using   7 DIIS vectors
                                         safer DIIS on
  Preconditioner : FULL_ALL            : diagonalization, state selective
  Precond_solver : DEFAULT
  stepsize       :    0.15000000                  energy_gap     :    0.08000000
  eps_taylor     :   0.10000E-15                  max_taylor     :             4
  ----------------------------------- OT ---------------------------------------

  Step     Update method      Time    Convergence         Total energy    Change
  ------------------------------------------------------------------------------
     1 OT DIIS     0.15E+00   11.2     0.04957346      -809.6523378112 -8.10E+02
     2 OT DIIS     0.15E+00    1.9     0.12089325      -799.6450345446  1.00E+01
     3 OT DIIS     0.15E+00    1.9     0.04349301      -866.7657895690 -6.71E+01
     4 OT DIIS     0.15E+00    1.9     0.02521414      -882.8922439511 -1.61E+01
     5 OT DIIS     0.15E+00    1.9     0.02756571      -890.6454316702 -7.75E+00
     6 OT DIIS     0.15E+00    1.9     0.01978711      -896.7181053826 -6.07E+00
     7 OT DIIS     0.15E+00    1.9     0.02070424      -900.1512467877 -3.43E+00
     8 OT DIIS     0.15E+00    1.9     0.01736849      -902.1725498351 -2.02E+00
     9 OT DIIS     0.15E+00    1.9     0.01982051      -904.1857432710 -2.01E+00
    10 OT DIIS     0.15E+00    1.9     0.01804218      -904.1882334849 -2.49E-03
    11 OT DIIS     0.15E+00    1.9     0.01126557      -906.1969980299 -2.01E+00
    12 OT DIIS     0.15E+00    1.9     0.00776460      -907.7085611824 -1.51E+00
    13 OT DIIS     0.15E+00    1.9     0.00830185      -907.9540742144 -2.46E-01
    14 OT DIIS     0.15E+00    1.9     0.00519647      -908.5262987251 -5.72E-01
    15 OT DIIS     0.15E+00    1.9     0.00472894      -908.8467990974 -3.21E-01
    16 OT DIIS     0.15E+00    1.9     0.00581235      -908.9705229754 -1.24E-01
    17 OT DIIS     0.15E+00    1.9     0.00330256      -909.2351286471 -2.65E-01
    18 OT DIIS     0.15E+00    1.9     0.00285949      -909.3677530377 -1.33E-01
    19 OT DIIS     0.15E+00    1.9     0.00252670      -909.4353091397 -6.76E-02
    20 OT DIIS     0.15E+00    1.9     0.00268549      -909.4895623553 -5.43E-02
    21 OT DIIS     0.15E+00    1.9     0.00178623      -909.5358191106 -4.63E-02
    22 OT DIIS     0.15E+00    1.9     0.00156231      -909.5557141369 -1.99E-02
    23 OT DIIS     0.15E+00    1.9     0.00101931      -909.5756715012 -2.00E-02
    24 OT DIIS     0.15E+00    1.9     0.00097014      -909.5849107794 -9.24E-03
    25 OT DIIS     0.15E+00    1.9     0.00124228      -909.5866257334 -1.71E-03
    26 OT DIIS     0.15E+00    1.9     0.00067973      -909.5944510796 -7.83E-03
    27 OT DIIS     0.15E+00    1.9     0.00065461      -909.5975358764 -3.08E-03
    28 OT DIIS     0.15E+00    1.9     0.00059889      -909.5993274840 -1.79E-03
    29 OT DIIS     0.15E+00    1.9     0.00061009      -909.6004765939 -1.15E-03
    30 OT DIIS     0.15E+00    1.9     0.00048311      -909.6026546430 -2.18E-03
    31 OT DIIS     0.15E+00    1.9     0.00033277      -909.6044353214 -1.78E-03
    32 OT DIIS     0.15E+00    1.9     0.00033661      -909.6053957706 -9.60E-04
    33 OT DIIS     0.15E+00    1.9     0.00034089      -909.6080139045 -2.62E-03
    34 OT DIIS     0.15E+00    1.9     0.00031124      -909.6084030686 -3.89E-04
    35 OT DIIS     0.15E+00    1.8     0.00030208      -909.6107434106 -2.34E-03
    36 OT DIIS     0.15E+00    1.9     0.00031825      -909.6118033008 -1.06E-03
    37 OT DIIS     0.15E+00    1.9     0.00033966      -909.6147032572 -2.90E-03
    38 OT DIIS     0.15E+00    1.9     0.00033479      -909.6151283987 -4.25E-04
    39 OT DIIS     0.15E+00    1.9     0.00028038      -909.6157115107 -5.83E-04
    40 OT DIIS     0.15E+00    1.9     0.00028491      -909.6169627456 -1.25E-03
    41 OT DIIS     0.15E+00    1.9     0.00026183      -909.6188764274 -1.91E-03
    42 OT DIIS     0.15E+00    1.9     0.00025926      -909.6186761201  2.00E-04
    43 OT DIIS     0.15E+00    1.9     0.00023343      -909.6200311448 -1.36E-03
    44 OT DIIS     0.15E+00    1.9     0.00023423      -909.6208814775 -8.50E-04
    45 OT DIIS     0.15E+00    1.9     0.00023587      -909.6229271926 -2.05E-03
    46 OT DIIS     0.15E+00    1.9     0.00024684      -909.6235749351 -6.48E-04
    47 OT DIIS     0.15E+00    1.8     0.00024529      -909.6242359763 -6.61E-04
    48 OT DIIS     0.15E+00    1.9     0.00024229      -909.6262466834 -2.01E-03
    49 OT DIIS     0.15E+00    1.9     0.00024107      -909.6277887800 -1.54E-03
    50 OT DIIS     0.15E+00    1.9     0.00025210      -909.6278130594 -2.43E-05

  Leaving inner SCF loop after reaching    50 steps.


  Electronic density on regular grids:       -461.9999999544        0.0000000456
  Core density on regular grids:              461.9999999734       -0.0000000266
  Total charge density on r-space grids:        0.0000000191
  Total charge density g-space grids:           0.0000000191

  Overlap energy of the core charge distribution:               0.00001331312771
  Self energy of the core charge distribution:              -2285.77899951241761
  Core Hamiltonian energy:                                    677.16241793281392
  Hartree energy:                                             931.23022245154516
  Exchange-correlation energy:                               -232.00044671574622
  Dispersion energy:                                           -0.24102052873673

  Total energy:                                              -909.62781305941394

  outer SCF iter =    1 RMS gradient =   0.25E-03 energy =       -909.6278130594

  ----------------------------------- OT ---------------------------------------
  Minimizer      : DIIS                : direct inversion
                                         in the iterative subspace
[...]
 flops     5 x    32 x    17          40786421760       0.0%      0.2%     99.8%
 flops    13 x     5 x    32          41980848000       0.0%      0.0%    100.0%
 flops     5 x    32 x     5          47984025600       0.0%      0.2%     99.8%
 flops    17 x    32 x    32          57810923520       0.0%      0.0%    100.0%
 flops     5 x    32 x    32          68012851200       0.0%      0.0%    100.0%
 flops    32 x    32 x    17          72050528256       0.0%      0.0%    100.0%
 flops    32 x    32 x     5          84765327360       0.0%      0.0%    100.0%
 flops    13 x     7 x    13         129856116572       0.0%      1.6%     98.4%
 flops    32 x    32 x    32         197274370048       0.0%      0.0%    100.0%
 flops    13 x     1 x    13         232479449436       0.0%    100.0%      0.0%
 flops    17 x    32 x    13         379993496064       0.0%      0.0%    100.0%
 flops    13 x    32 x    17         379993496064       0.0%      0.0%    100.0%
 flops    13 x    13 x    32         387552995648       0.0%      0.0%    100.0%
 flops     5 x    32 x    13         447051171840       0.0%      0.2%     99.8%
 flops    13 x    32 x     5         447051171840       0.0%      0.2%     99.8%
 flops    13 x    32 x    32         633653063680       0.0%      0.0%    100.0%
 flops    32 x    32 x    13         789730299904       0.0%      0.0%    100.0%
 flops    13 x    32 x    13        4155395730304       0.0%      0.0%    100.0%
 flops inhomo. stacks                           0       0.0%      0.0%      0.0%
 flops total                         9.133610E+12       0.0%      4.1%     95.9%
 flops max/rank                    493.649392E+09       0.0%     12.8%     87.2%
 matmuls inhomo. stacks                         0       0.0%      0.0%      0.0%
 matmuls total                         2299365022       0.0%     57.8%     42.2%
 number of processed stacks              75882839       0.0%     55.3%     44.7%
 average stack size                                     0.0      31.7      28.6
 marketing flops                     9.732897E+12
 -------------------------------------------------------------------------------
 # multiplications                         685943
 max memory usage/rank             778.440704E+06
 # max total images/rank                        1
 # max 3D layers                                1
 # MPI messages exchanged               246939480
 MPI messages size (bytes):
  total size                         8.282445E+12
  min size                           0.000000E+00
  max size                         401.408000E+03
  average size                      33.540387E+03
 MPI breakdown and total messages size (bytes):
             size <=      128           191609100                 26299000
       128 < size <=     8192            18308170              54889196240
      8192 < size <=    32768             4746050              70622082560
     32768 < size <=   131072            14138820             975163613600
    131072 < size <=  4194304            18137340            7219964496160
   4194304 < size <= 16777216                   0                        0
  16777216 < size                               0                        0
 -------------------------------------------------------------------------------
 -                                                                             -
 -                      DBCSR MESSAGE PASSING PERFORMANCE                      -
 -                                                                             -
 -------------------------------------------------------------------------------
 ROUTINE             CALLS      AVE VOLUME [Bytes]
 MP_Bcast              119                     12.
 MP_Allreduce      2208644                      8.
 MP_Alltoall       2204989                   5027.
 MP_ISend         16454902                  15213.
 MP_IRecv         16454902                  15061.
 -------------------------------------------------------------------------------

 -------------------------------------------------------------------------------
 -                                                                             -
 -                                GRID STATISTICS                              -
 -                                                                             -
 -------------------------------------------------------------------------------
 LP    KERNEL             BACKEND                              COUNT     PERCENT
 4     collocate general  GPU                               76534231      34.23%
 4     integrate general  GPU                               68949408      30.84%
 3     collocate general  GPU                               30948589      13.84%
 3     integrate general  GPU                               27884890      12.47%
 7     integrate general  GPU                                7523873       3.36%
 2     collocate general  GPU                                3847284       1.72%
 2     integrate general  GPU                                3466446       1.55%
 6     integrate general  GPU                                3039238       1.36%
 0     collocate general  REF                                 517824       0.23%
 3     integrate general  REF                                 513648       0.23%
 5     integrate general  GPU                                 377790       0.17%
 -------------------------------------------------------------------------------

 MEMORY| Estimated peak process memory [MiB]                                 743

 -------------------------------------------------------------------------------
 ----                             MULTIGRID INFO                            ----
 -------------------------------------------------------------------------------
 count for grid        1:        2485522          cutoff [a.u.]          300.00
 count for grid        2:        2654538          cutoff [a.u.]          100.00
 count for grid        3:        4159315          cutoff [a.u.]           33.33
 count for grid        4:        3369857          cutoff [a.u.]           11.11
 total gridlevel count  :       12669232

 -------------------------------------------------------------------------------
 -                                                                             -
 -                         MESSAGE PASSING PERFORMANCE                         -
 -                                                                             -
 -------------------------------------------------------------------------------

 ROUTINE             CALLS      AVE VOLUME [Bytes]
 MP_Group                4
 MP_Bcast           177067                  15000.
 MP_Allreduce       448109                     51.
 MP_Sync             32158
 MP_Alltoall         25472               13242882.
 MP_SendRecv         17220                   1488.
 MP_ISendRecv       262395                 303360.
 MP_Wait            298093
 MP_comm_split       16077
 MP_ISend            27460                2576083.
 MP_IRecv            27460                2576077.
 MP_Recv              2109                 196136.
 -------------------------------------------------------------------------------


 -------------------------------------------------------------------------------
 -                                                                             -
 -                           R E F E R E N C E S                               -
 -                                                                             -
 -------------------------------------------------------------------------------
 
 CP2K version 9.1, the CP2K developers group (2021).
 CP2K is freely available from https://www.cp2k.org/ .

 Kuehne,Thomas D.; Iannuzzi,Marcella; Del Ben,Mauro;
 Rybkin,Vladimir V.; Seewald,Patrick; Stein,Frederick; Laino,Teodoro;
 Khaliullin,Rustam Z.; Schuett,Ole; Schiffmann,Florian; Golze,Dorothea;
 Wilhelm,Jan; Chulkov,Sergey; Bani-Hashemian,Mohammad Hossein;
 Weber,Valery; Borstnik,Urban; Taillefumier,Mathieu;
 Jakobovits,Alice Shoshana; Lazzaro,Alfio; Pabst,Hans; Mueller,Tiziano;
 Schade,Robert; Guidon,Manuel; Andermatt,Samuel; Holmberg,Nico;
 Schenter,Gregory K.; Hehn,Anna; Bussy,Augustin; Belleflamme,Fabian;
 Tabacchi,Gloria; Gloess,Andreas; Lass,Michael; Bethune,Iain;
 Mundy,Christopher J.; Plessl,Christian; Watkins,Matt;
 VandeVondele,Joost; Krack,Matthias; Hutter,Juerg. 
 The Journal of Chemical Physics, 152 (19), (2020). 
 CP2K: An electronic structure and molecular dynamics software package -
 Quickstep: Efficient and accurate electronic structure calculations.
 https://doi.org/10.1063/5.0007045

 Goerigk, Lars; Hansen, Andreas; Bauer, Christoph; Ehrlich, Stephan;
 Najibi, Asim; Grimme, Stefan. , 19 (48), (2017). 
 A look at the density functional theory zoo with the advanced GMTKN55 database
 for general main group thermochemistry, kinetics and noncovalent interactions.
 https://doi.org/10.1039/C7CP04913G

 Schuett, Ole; Messmer, Peter; Hutter, Juerg; VandeVondele, Joost. 
 Electronic Structure Calculations on Graphics Processing Units, John
 Wiley & Sons, Ltd, 173-190 (2016). 
 GPU-Accelerated Sparse Matrix-Matrix Multiplication for
 Linear Scaling Density Functional Theory.
 https://doi.org/10.1002/9781118670712.ch8

 Borstnik, U; VandeVondele, J; Weber, V; Hutter, J. 
 PARALLEL COMPUTING, 40 (5-6), 47-58 (2014). 
 Sparse matrix multiplication: The distributed block-compressed sparse
 row library.
 https://doi.org/10.1016/j.parco.2014.03.012

 Hutter, J; Iannuzzi, M; Schiffmann, F; VandeVondele, J. 
 WIREs Comput Mol Sci., 4 (1), 15-25 (2014). 
 CP2K: atomistic simulations of condensed matter systems.
 https://doi.org/10.1002/wcms.1159

 Marek, A; Blum, V; Johanni, R; Havu, V; Lang, B; Auckenthaler, T;
 Heinecke, A; Bungartz, H; Lederer, H. 
 Journal of Physics: Condensed Matter, 26 (21), (2014). 
 The ELPA library: scalable parallel eigenvalue solutions for
 electronic structure
 theory and computational science.
 https://doi.org/10.1088/0953-8984/26/21/213201

 Grimme, S; Ehrlich, S; Goerigk, L. 
 JOURNAL OF COMPUTATIONAL CHEMISTRY, 32, 1456 (2011). 
 Effect of the damping function in dispersion corrected density functional theory.
 https://doi.org/10.1002/jcc.21759

 Grimme, S; Antony, J; Ehrlich, S; Krieg, H. 
 JOURNAL OF CHEMICAL PHYSICS, 132 (15), 154104 (2010). 
 A consistent and accurate ab initio parametrization of density
 functional dispersion correction (DFT-D) for the 94 elements H-Pu.
 https://doi.org/10.1063/1.3382344

 VandeVondele, J; Hutter, J. 
 JOURNAL OF CHEMICAL PHYSICS, 127 (11), 114105 (2007). 
 Gaussian basis sets for accurate calculations on molecular systems in
 gas and condensed phases.
 https://doi.org/10.1063/1.2770708

 Kuhne, TD; Krack, M; Mohamed, FR; Parrinello, M. 
 PHYSICAL REVIEW LETTERS, 98 (6), 066401 (2007). 
 Efficient and accurate Car-Parrinello-like approach to
 Born-Oppenheimer molecular dynamics.
 https://doi.org/10.1103/PhysRevLett.98.066401

 Krack, M. 
 THEORETICAL CHEMISTRY ACCOUNTS, 114 (1-3), 145-152 (2005). 
 Pseudopotentials for H to Kr optimized for gradient-corrected
 exchange-correlation functionals.
 https://doi.org/10.1007/s00214-005-0655-y

 VandeVondele, J; Krack, M; Mohamed, F; Parrinello, M; Chassaing, T;
 Hutter, J. COMPUTER PHYSICS COMMUNICATIONS, 167 (2), 103-128 (2005). 
 QUICKSTEP: Fast and accurate density functional calculations using a
 mixed Gaussian and plane waves approach.
 https://doi.org/10.1016/j.cpc.2004.12.014

 Frigo, M; Johnson, SG. 
 PROCEEDINGS OF THE IEEE, 93 (2), 216-231 (2005). 
 The design and implementation of FFTW3.
 https://doi.org/10.1109/JPROC.2004.840301

 Kolafa, J. 
 JOURNAL OF COMPUTATIONAL CHEMISTRY, 25 (3), 335-342 (2004). 
 Time-reversible always stable predictor-corrector method for
 molecular dynamics of polarizable molecules.
 https://doi.org/10.1002/jcc.10385

 VandeVondele, J; Hutter, J. 
 JOURNAL OF CHEMICAL PHYSICS, 118 (10), 4365-4369 (2003). 
 An efficient orbital transformation method for electronic structure
 calculations.
 https://doi.org/10.1063/1.1543154

 Hartwigsen, C; Goedecker, S; Hutter, J. 
 PHYSICAL REVIEW B, 58 (7), 3641-3662 (1998). 
 Relativistic separable dual-space Gaussian pseudopotentials from H to Rn.
 https://doi.org/10.1103/PhysRevB.58.3641

 Lippert, G; Hutter, J; Parrinello, M. 
 MOLECULAR PHYSICS, 92 (3), 477-487 (1997). 
 A hybrid Gaussian and plane wave density functional scheme.
 https://doi.org/10.1080/002689797170220

 Perdew, JP; Burke, K; Ernzerhof, M. 
 PHYSICAL REVIEW LETTERS, 77 (18), 3865-3868 (1996). 
 Generalized gradient approximation made simple.
 https://doi.org/10.1103/PhysRevLett.77.3865

 Goedecker, S; Teter, M; Hutter, J. 
 PHYSICAL REVIEW B, 54 (3), 1703-1710 (1996). 
 Separable dual-space Gaussian pseudopotentials.
 https://doi.org/10.1103/PhysRevB.54.1703


 -------------------------------------------------------------------------------
 -                                                                             -
 -                                T I M I N G                                  -
 -                                                                             -
 -------------------------------------------------------------------------------
 SUBROUTINE                       CALLS  ASD         SELF TIME        TOTAL TIME
                                MAXIMUM       AVERAGE  MAXIMUM  AVERAGE  MAXIMUM
 CP2K                                 1  1.0    0.062    0.083 6266.343 6266.344
 cp_geo_opt                           1  2.0    0.000    0.000 6265.499 6265.500
 geoopt_bfgs                          1  3.0    0.021    0.038 6265.499 6265.500
 cp_eval_at                         124  4.0    0.010    0.016 6237.650 6237.662
 qs_forces                          123  5.0    0.014    0.016 6195.343 6195.344
 qs_energies                        124  6.0    0.006    0.008 5687.221 5687.279
 scf_post_calculation_gpw           124  7.0    0.005    0.007 3410.099 3410.101
 make_lumo_gpw                      124  8.0    0.002    0.003 3406.415 3406.418
 ot_eigensolver                     124  9.0    0.572    0.611 3405.359 3405.361
 dbcsr_multiply_generic          685943 11.9   19.564   19.933 3281.408 3313.436
 scf_env_do_scf                     124  7.0    0.006    0.014 2156.146 2156.151
 multiply_cannon                 685943 12.9   43.381   44.379 1959.726 2094.924
 rebuild_ks_matrix                 1249  9.7    0.004    0.004 2007.773 2008.987
 qs_ks_build_kohn_sham_matrix      1249 10.7    0.156    0.175 2007.770 2008.983
 scf_env_do_scf_inner_loop         1126  8.0    0.020    0.065 1939.460 1939.862
 multiply_cannon_loop            685943 13.9  120.317  125.246 1773.855 1913.904
 ot_mini                          47124 10.0    0.178    0.190 1708.879 1710.482
 qs_ot_get_derivative             24187 11.1    0.158    0.166 1631.629 1635.492
 qs_ks_update_qs_env               1251  9.0    0.008    0.009 1478.370 1479.469
 mp_sum_l                       2058098 12.9 1000.632 1085.656 1000.632 1085.656
 sum_up_and_integrate              1249 11.7    1.864    1.988 1029.050 1029.552
 integrate_v_rspace                1249 12.7    0.033    0.038 1027.185 1027.682
 mp_waitall_1                   ******* 16.1  853.336  965.996  853.336  965.996
 pw_transfer                      23860 13.4    1.424    1.591  924.745  939.544
 fft_wrap_pw1pw2                  21362 14.5    0.201    0.223  914.335  929.039
 qs_ot_get_derivative_taylor      17100 12.1    0.506    0.520  891.813  893.994
 fft_wrap_pw1pw2_300              13865 15.6    0.068    0.076  834.561  848.849
 qs_vxc_create                     1249 11.7    0.027    0.038  830.588  833.139
 xc_vxc_pw_create                  1249 12.7   34.798   37.571  830.561  833.121
 qs_ot_get_p                      48454 10.0    0.222    0.238  685.807  694.031
 grid_integrate_task_list          1249 13.7  651.347  682.692  651.347  682.692
 multiply_cannon_metrocomm3     4115658 14.9    8.592    8.784  495.166  568.846
 qs_ks_update_qs_env_forces         123  6.0    0.001    0.001  529.667  529.799
 pw_cuda_c1dr3d_3d_ps             11242 17.0    0.248    0.289  495.620  513.595
 multiply_cannon_multrec        4115658 14.9   92.863  133.740  298.780  501.429
 xc_rho_set_and_dset_create        1249 13.7    3.080    3.863  471.545  500.901
 qs_rho_update_rho                 1250  9.1    0.006    0.006  491.623  493.445
 calculate_rho_elec                1250 10.1    1.839    2.045  491.618  493.439
 multiply_cannon_acc_sync_right 3429715 14.9  425.865  484.372  425.865  484.372
 qs_ot_get_orbitals               48329 10.0    0.180    0.190  459.525  461.599
 pw_cuda_r3dc1d_3d_ps             10120 16.0    0.188    0.207  418.424  435.010
 multiply_cannon_metrocomm1     4115658 14.9    9.629    9.859  308.516  377.393
 density_rs2pw                     1250 11.1    0.070    0.075  333.665  343.125
 rs_pw_transfer                   10243 13.3    0.178    0.209  323.593  333.835
 qs_ot_get_derivative_diag         7087 12.1    0.137    0.145  323.937  324.776
 mp_alltoall_z22v                 21362 18.5  212.501  309.735  212.501  309.735
 potential_pw2rs                   1249 13.7    0.219    0.250  274.075  274.589
 qs_ot_p2m_taylor                 33123 11.0    0.365    0.375  247.269  250.892
 mp_sum_d                        357301 13.3  216.145  242.480  216.145  242.480
 xc_functional_eval                1249 14.7    0.013    0.015  211.900  241.163
 pbe_lda_eval                      1249 15.7  211.887  241.149  211.887  241.149
 x_to_yz                          11242 18.0   52.130   55.165  160.763  223.091
 make_m2s                       1371886 12.9    8.809    8.982  209.462  220.179
 init_scf_loop                      125  8.0    0.002    0.003  216.169  216.172
 make_images                    1371886 13.9   25.662   26.719  194.816  205.440
 pw_cuda_sf                       11242 18.0  186.339  204.833  186.339  204.833
 pw_cuda_fg                       10120 17.0  179.280  196.193  179.280  196.193
 qs_scf_new_mos                    1126  9.0    0.005    0.005  179.010  179.743
 qs_scf_loop_do_ot                 1126 10.0    0.005    0.006  179.005  179.738
 dbcsr_mm_accdrv_process        9238886 15.7   36.063  125.774   53.257  176.201
 multiply_cannon_multrec_finali  685943 15.9    1.107    1.177  148.452  173.365
 dbcsr_mm_multrec_finalize       685943 16.9    2.352    2.660  147.344  172.335
 dbcsr_mm_sched_finalize         685943 17.9  139.324  169.572  144.992  170.447
 ot_scf_mini                       1126 11.0    0.019    0.020  167.073  167.637
 mp_alltoall_d11v                385473 14.6  113.416  166.549  113.416  166.549
 pw_cuda_ffc                      11242 18.0  148.112  164.102  148.112  164.102
 yz_to_x                          10120 17.0   25.149   26.103  129.017  162.448
 grid_collocate_task_list          1250 11.1  151.554  159.212  151.554  159.212
 rs_gather_matrices                1249 13.7    0.194    0.211  101.634  155.610
 dbcsr_dot_sd                    150510 11.3    0.687    0.929  120.763  135.560
 qs_ot_p2m_diag                   15331 11.0    0.330    0.400  128.304  130.074
 rs_pw_transfer_PW2RS_300          1372 15.3   83.146   84.468  122.454  125.620
 rs_pw_transfer_RS2PW_300          1374 12.9   76.501   81.054  115.760  125.576
 -------------------------------------------------------------------------------

 The number of warnings for this run is : 0
 
 -------------------------------------------------------------------------------
  **** **** ******  **  PROGRAM ENDED AT                 2022-04-06 14:28:26.332
 ***** ** ***  *** **   PROGRAM RAN ON                                  nid03772
 **    ****   ******    PROGRAM RAN BY                                  bbuenomo
 ***** **    ** ** **   PROGRAM PROCESS ID                                  9608
  **** **  *******  **  PROGRAM STOPPED IN /scratch/snx3000/bbuenomo/ta/geo-opt/
                                           hyp
