 DBCSR| CPU Multiplication driver                                            SMM
 DBCSR| Multrec recursion limit                                              512
 DBCSR| Multiplication stack size                                          30000
 DBCSR| Maximum elements for images                                    UNLIMITED
 DBCSR| Multiplicative factor virtual images                                   1
 DBCSR| Use multiplication densification                                       F
 DBCSR| Multiplication size stacks                                             3
 DBCSR| Use memory pool for CPU allocation                                     F
 DBCSR| Number of 3D layers                                               SINGLE
 DBCSR| Use MPI memory allocation                                              F
 DBCSR| Use RMA algorithm                                                      F
 DBCSR| Use Communication thread                                               T
 DBCSR| Communication thread load                                             87
 DBCSR| MPI: My node id                                                        0
 DBCSR| MPI: Number of nodes                                                  36
 DBCSR| OMP: Current number of threads                                         1
 DBCSR| OMP: Max number of threads                                             1
 DBCSR| ACC: Number of devices/node                                            1
 DBCSR| ACC: Number of priority stack-buffers                                 40
 DBCSR| ACC: Number of posterior stack-buffers                                80
 DBCSR| ACC: Number of priority streams                                        4
 DBCSR| ACC: Number of posterior streams                                       4
 DBCSR| ACC: Avoid driver after busy                                           F
 DBCSR| ACC: Process inhomogeneous stacks                                      T
 DBCSR| ACC: Min. flop for processing                                          0
 DBCSR| ACC: Min. flop for sorting                                          4000
 DBCSR| ACC: Number of binning bins                                         4096
 DBCSR| ACC: Size of binning bins                                             16
 DBCSR| Split modifier for TAS multiplication algorithm                  1.0E+00


  **** **** ******  **  PROGRAM STARTED AT               2022-04-06 14:46:30.322
 ***** ** ***  *** **   PROGRAM STARTED ON                              nid04249
 **    ****   ******    PROGRAM STARTED BY                              bbuenomo
 ***** **    ** ** **   PROGRAM PROCESS ID                                 20584
  **** **  *******  **  PROGRAM STARTED IN /scratch/snx3000/bbuenomo/ta/cell-opt
                                           /hyp

 CP2K| version string:                                          CP2K version 9.1
 CP2K| source code revision number:                                  git:d8d7100
 CP2K| cp2kflags: omp libint fftw3 libxc elpa elpa_nvidia_gpu parallel mpi3 scal
 CP2K|            apack pw_cuda smm_dnn smm dbcsr_acc max_contr=4 plumed2 spglib sirius libvori libbqb grid_cuda
 CP2K| is freely available from                            https://www.cp2k.org/
 CP2K| Program compiled at                          Mon 21 Feb 14:02:30 CET 2022
 CP2K| Program compiled on                                              daint102
 CP2K| Program compiled for                                CP2K-9.1-CrayGNU-cuda
 CP2K| Data directory path    /apps/daint/UES/jenkins/7.0.UP03/21.09/daint-gpu/s
 CP2K| Input file name                                          acs_go-1.restart

 GLOBAL| Force Environment number                                              1
 GLOBAL| Basis set file name                                        BASIS_MOLOPT
 GLOBAL| Potential file name                                      GTH_POTENTIALS
 GLOBAL| MM Potential file name                                     MM_POTENTIAL
 GLOBAL| Coordinate file name                     acs_v1-6c_Al_1_1-1B_2OH_Ch.xyz
 GLOBAL| Method name                                                        CP2K
 GLOBAL| Project name                                                     acs_co
 GLOBAL| Run type                                                       CELL_OPT
 GLOBAL| FFT library                                                       FFTW3
 GLOBAL| Diagonalization library                                            ELPA
 GLOBAL| Minimum number of eigenvectors for ELPA usage                        16
 GLOBAL| Orthonormality check for eigenvectors                          DISABLED
 GLOBAL| Matrix multiplication library                                 ScaLAPACK
 GLOBAL| All-to-all communication in single precision                          F
 GLOBAL| FFTs using library dependent lengths                                  F
 GLOBAL| Grid backend                                                       AUTO
 GLOBAL| Global print level                                               MEDIUM
 GLOBAL| MPI I/O enabled                                                       T
 GLOBAL| Total number of message passing processes                            36
 GLOBAL| Number of threads for this process                                    1
 GLOBAL| This output is from process                                           0
 GLOBAL| Stack size for threads created by OpenMP (OMP_STACKSIZE)        default
 GLOBAL| CPU model name                Intel(R) Xeon(R) CPU E5-2690 v3 @ 2.60GHz
 GLOBAL| CPUID                                                              1002

 MEMORY| system memory details [Kb]
 MEMORY|                        rank 0           min           max       average
 MEMORY| MemTotal             65740148      65740148      65740148      65740148
 MEMORY| MemFree              56603256      56603256      56655276      56637041
 MEMORY| Buffers                 10452          7656         10452          8653
 MEMORY| Cached                3308428       3292144       3308428       3297640
 MEMORY| Slab                   274616        266192        274616        269049
 MEMORY| SReclaimable            58176         54728         58176         55930
 MEMORY| MemLikelyFree        59980312      59980312      60010000      59999265


 *** Fundamental physical constants (SI units) ***

 *** Literature: B. J. Mohr and B. N. Taylor,
 ***             CODATA recommended values of the fundamental physical
 ***             constants: 2006, Web Version 5.1
 ***             http://physics.nist.gov/constants

 Speed of light in vacuum [m/s]                             2.99792458000000E+08
 Magnetic constant or permeability of vacuum [N/A**2]       1.25663706143592E-06
 Electric constant or permittivity of vacuum [F/m]          8.85418781762039E-12
 Planck constant (h) [J*s]                                  6.62606896000000E-34
 Planck constant (h-bar) [J*s]                              1.05457162825177E-34
 Elementary charge [C]                                      1.60217648700000E-19
 Electron mass [kg]                                         9.10938215000000E-31
 Electron g factor [ ]                                     -2.00231930436220E+00
 Proton mass [kg]                                           1.67262163700000E-27
 Fine-structure constant                                    7.29735253760000E-03
 Rydberg constant [1/m]                                     1.09737315685270E+07
 Avogadro constant [1/mol]                                  6.02214179000000E+23
 Boltzmann constant [J/K]                                   1.38065040000000E-23
 Atomic mass unit [kg]                                      1.66053878200000E-27
 Bohr radius [m]                                            5.29177208590000E-11

 *** Conversion factors ***

 [u] -> [a.u.]                                              1.82288848426455E+03
 [Angstrom] -> [Bohr] = [a.u.]                              1.88972613288564E+00
 [a.u.] = [Bohr] -> [Angstrom]                              5.29177208590000E-01
 [a.u.] -> [s]                                              2.41888432650478E-17
 [a.u.] -> [fs]                                             2.41888432650478E-02
 [a.u.] -> [J]                                              4.35974393937059E-18
 [a.u.] -> [N]                                              8.23872205491840E-08
 [a.u.] -> [K]                                              3.15774647902944E+05
 [a.u.] -> [kJ/mol]                                         2.62549961709828E+03
 [a.u.] -> [kcal/mol]                                       6.27509468713739E+02
 [a.u.] -> [Pa]                                             2.94210107994716E+13
 [a.u.] -> [bar]                                            2.94210107994716E+08
 [a.u.] -> [atm]                                            2.90362800883016E+08
 [a.u.] -> [eV]                                             2.72113838565563E+01
 [a.u.] -> [Hz]                                             6.57968392072181E+15
 [a.u.] -> [1/cm] (wave numbers)                            2.19474631370540E+05
 [a.u./Bohr**2] -> [1/cm]                                   5.14048714338585E+03
 

 CELL_TOP| Volume [angstrom^3]:                                      3375.016460
 CELL_TOP| Vector a [angstrom    17.002     0.000     0.000   |a| =    17.001520
 CELL_TOP| Vector b [angstrom    -8.501    14.724     0.000   |b| =    17.001620
 CELL_TOP| Vector c [angstrom     0.000     0.000    13.482   |c| =    13.482400
 CELL_TOP| Angle (b,c), alpha [degree]:                                90.000000
 CELL_TOP| Angle (a,c), beta  [degree]:                                90.000000
 CELL_TOP| Angle (a,b), gamma [degree]:                               120.000000
 CELL_TOP| Numerically orthorhombic:                                          NO

 *** WARNING in atoms_input.F:123 :: Overwriting coordinates. Active    ***
 *** coordinates read from &COORD section. Active coordinates READ from ***
 *** &COORD section                                                     ***


 GENERATE|  Preliminary Number of Bonds generated:                             0
 GENERATE|  Achieved consistency in connectivity generation.

 CELL| Volume [angstrom^3]:                                          3375.016460
 CELL| Vector a [angstrom]:      17.002     0.000     0.000   |a| =    17.001520
 CELL| Vector b [angstrom]:      -8.501    14.724     0.000   |b| =    17.001620
 CELL| Vector c [angstrom]:       0.000     0.000    13.482   |c| =    13.482400
 CELL| Angle (b,c), alpha [degree]:                                    90.000000
 CELL| Angle (a,c), beta  [degree]:                                    90.000000
 CELL| Angle (a,b), gamma [degree]:                                   120.000000
 CELL| Numerically orthorhombic:                                              NO

 CELL_REF| Volume [angstrom^3]:                                      3375.016460
 CELL_REF| Vector a [angstrom    17.002     0.000     0.000   |a| =    17.001520
 CELL_REF| Vector b [angstrom    -8.501    14.724     0.000   |b| =    17.001620
 CELL_REF| Vector c [angstrom     0.000     0.000    13.482   |c| =    13.482400
 CELL_REF| Angle (b,c), alpha [degree]:                                90.000000
 CELL_REF| Angle (a,c), beta  [degree]:                                90.000000
 CELL_REF| Angle (a,b), gamma [degree]:                               120.000000
 CELL_REF| Numerically orthorhombic:                                          NO

 *******************************************************************************
 *******************************************************************************
 **                                                                           **
 **     #####                         ##              ##                      **
 **    ##   ##            ##          ##              ##                      **
 **   ##     ##                       ##            ######                    **
 **   ##     ##  ##   ##  ##   #####  ##  ##   ####   ##    #####    #####    **
 **   ##     ##  ##   ##  ##  ##      ## ##   ##      ##   ##   ##  ##   ##   **
 **   ##  ## ##  ##   ##  ##  ##      ####     ###    ##   ######   ######    **
 **    ##  ###   ##   ##  ##  ##      ## ##      ##   ##   ##       ##        **
 **     #######   #####   ##   #####  ##  ##  ####    ##    #####   ##        **
 **           ##                                                    ##        **
 **                                                                           **
 **                                                ... make the atoms dance   **
 **                                                                           **
 **            Copyright (C) by CP2K developers group (2000-2021)             **
 **                      J. Chem. Phys. 152, 194103 (2020)                    **
 **                                                                           **
 *******************************************************************************

 DFT| Spin restricted Kohn-Sham (RKS) calculation                            RKS
 DFT| Multiplicity                                                             1
 DFT| Number of spin states                                                    1
 DFT| Charge                                                                   0
 DFT| Self-interaction correction (SIC)                                       NO
 DFT| Cutoffs: density                                              1.000000E-10
 DFT|          gradient                                             1.000000E-10
 DFT|          tau                                                  1.000000E-10
 DFT|          cutoff_smoothing_range                               0.000000E+00
 DFT| XC density smoothing                                                  NONE
 DFT| XC derivatives                                                          PW
 FUNCTIONAL| ROUTINE=NEW
 FUNCTIONAL| PBE:
 FUNCTIONAL| J.P.Perdew, K.Burke, M.Ernzerhof, Phys. Rev. Letter, vol. 77, n 18,
 FUNCTIONAL|  pp. 3865-3868, (1996){spin unpolarized}                           
 vdW POTENTIAL|                                                   Pair Potential
 vdW POTENTIAL|          DFT-D3 (Version 3.1)
 vdW POTENTIAL|          Potential Form: S. Grimme et al, JCP 132: 154104 (2010)
 vdW POTENTIAL|          BJ Damping: S. Grimme et al, JCC 32: 1456 (2011)
 vdW POTENTIAL|          Cutoff Radius [Bohr]:                             18.90
 vdW POTENTIAL|          s6 Scaling Factor:                               1.0000
 vdW POTENTIAL|          a1 Damping Factor:                               0.4289
 vdW POTENTIAL|          s8 Scaling Factor:                               0.7875
 vdW POTENTIAL|          a2 Damping Factor:                               4.4407
 vdW POTENTIAL|          Cutoff for CN calculation:                   0.1000E-05

 QS| Method:                                                                 GPW
 QS| Density plane wave grid type                        NON-SPHERICAL FULLSPACE
 QS| Number of grid levels:                                                    4
 QS| Density cutoff [a.u.]:                                                300.0
 QS| Multi grid cutoff [a.u.]: 1) grid level                               300.0
 QS|                           2) grid level                               100.0
 QS|                           3) grid level                                33.3
 QS|                           4) grid level                                11.1
 QS| Grid level progression factor:                                          3.0
 QS| Relative density cutoff [a.u.]:                                        30.0
 QS| Interaction thresholds: eps_pgf_orb:                                1.0E-05
 QS|                         eps_filter_matrix:                          0.0E+00
 QS|                         eps_core_charge:                            1.0E-12
 QS|                         eps_rho_gspace:                             1.0E-10
 QS|                         eps_rho_rspace:                             1.0E-10
 QS|                         eps_gvg_rspace:                             1.0E-05
 QS|                         eps_ppl:                                    1.0E-02
 QS|                         eps_ppnl:                                   1.0E-07


 ATOMIC KIND INFORMATION

  1. Atomic kind: O                                     Number of atoms:      38

     Orbital Basis Set                                           DZVP-MOLOPT-GTH

       Number of orbital shell sets:                                           1
       Number of orbital shells:                                               5
       Number of primitive Cartesian functions:                                7
       Number of Cartesian basis functions:                                   14
       Number of spherical basis functions:                                   13
       Norm type:                                                              2

       Normalised Cartesian orbitals:

                        Set   Shell   Orbital            Exponent    Coefficient

                          1       1    2s               12.015955      -0.284499
                                                         5.108150      -0.322498
                                                         2.048398       0.148191
                                                         0.832382       0.295475
                                                         0.352316       0.150829
                                                         0.142977       0.015788
                                                         0.046761      -0.000019

                          1       2    3s               12.015955       0.725622
                                                         5.108150       0.644384
                                                         2.048398      -0.157350
                                                         0.832382      -0.853528
                                                         0.352316       0.146068
                                                         0.142977       0.153978
                                                         0.046761       0.000658

                          1       3    3px              12.015955       1.192141
                                                         5.108150       1.354170
                                                         2.048398       0.897267
                                                         0.832382       0.408839
                                                         0.352316       0.116648
                                                         0.142977       0.022184
                                                         0.046761       0.000308
                          1       3    3py              12.015955       1.192141
                                                         5.108150       1.354170
                                                         2.048398       0.897267
                                                         0.832382       0.408839
                                                         0.352316       0.116648
                                                         0.142977       0.022184
                                                         0.046761       0.000308
                          1       3    3pz              12.015955       1.192141
                                                         5.108150       1.354170
                                                         2.048398       0.897267
                                                         0.832382       0.408839
                                                         0.352316       0.116648
                                                         0.142977       0.022184
                                                         0.046761       0.000308

                          1       4    4px              12.015955      -1.062381
                                                         5.108150      -1.285791
                                                         2.048398      -0.727000
                                                         0.832382      -0.522764
                                                         0.352316       0.182681
                                                         0.142977       0.087560
                                                         0.046761       0.000981
                          1       4    4py              12.015955      -1.062381
                                                         5.108150      -1.285791
                                                         2.048398      -0.727000
                                                         0.832382      -0.522764
                                                         0.352316       0.182681
                                                         0.142977       0.087560
                                                         0.046761       0.000981
                          1       4    4pz              12.015955      -1.062381
                                                         5.108150      -1.285791
                                                         2.048398      -0.727000
                                                         0.832382      -0.522764
                                                         0.352316       0.182681
                                                         0.142977       0.087560
                                                         0.046761       0.000981

                          1       5    4dx2             12.015955       1.125955
                                                         5.108150       1.160468
                                                         2.048398       0.999335
                                                         0.832382       0.756334
                                                         0.352316       0.048604
                                                         0.142977       0.010378
                                                         0.046761      -0.000027
                          1       5    4dxy             12.015955       1.950212
                                                         5.108150       2.009990
                                                         2.048398       1.730899
                                                         0.832382       1.310009
                                                         0.352316       0.084185
                                                         0.142977       0.017974
                                                         0.046761      -0.000046
                          1       5    4dxz             12.015955       1.950212
                                                         5.108150       2.009990
                                                         2.048398       1.730899
                                                         0.832382       1.310009
                                                         0.352316       0.084185
                                                         0.142977       0.017974
                                                         0.046761      -0.000046
                          1       5    4dy2             12.015955       1.125955
                                                         5.108150       1.160468
                                                         2.048398       0.999335
                                                         0.832382       0.756334
                                                         0.352316       0.048604
                                                         0.142977       0.010378
                                                         0.046761      -0.000027
                          1       5    4dyz             12.015955       1.950212
                                                         5.108150       2.009990
                                                         2.048398       1.730899
                                                         0.832382       1.310009
                                                         0.352316       0.084185
                                                         0.142977       0.017974
                                                         0.046761      -0.000046
                          1       5    4dz2             12.015955       1.125955
                                                         5.108150       1.160468
                                                         2.048398       0.999335
                                                         0.832382       0.756334
                                                         0.352316       0.048604
                                                         0.142977       0.010378
                                                         0.046761      -0.000027

     Auxiliary Fit Basis Set                                               pFIT3

       Number of orbital shell sets:                                           7
       Number of orbital shells:                                               7
       Number of primitive Cartesian functions:                                7
       Number of Cartesian basis functions:                                   18
       Number of spherical basis functions:                                   17
       Norm type:                                                              2

       Normalised Cartesian orbitals:

                        Set   Shell   Orbital            Exponent    Coefficient

                          1       1    1s                0.270610       0.267404

                          2       1    1s                0.884930       0.650267

                          3       1    1s                8.504090       3.549204

                          4       1    1px               0.310400       0.330250
                          4       1    1py               0.310400       0.330250
                          4       1    1pz               0.310400       0.330250

                          5       1    1px               1.382560       2.136954
                          5       1    1py               1.382560       2.136954
                          5       1    1pz               1.382560       2.136954

                          6       1    1px               6.082640      13.616178
                          6       1    1py               6.082640      13.616178
                          6       1    1pz               6.082640      13.616178

                          7       1    1dx2              1.000000       1.645923
                          7       1    1dxy              1.000000       2.850822
                          7       1    1dxz              1.000000       2.850822
                          7       1    1dy2              1.000000       1.645923
                          7       1    1dyz              1.000000       2.850822
                          7       1    1dz2              1.000000       1.645923

       Atomic covalent radius [Angstrom]:                                  0.730

       Atomic van der Waals radius [Angstrom]:                             1.520

     GTH Potential information for                                    GTH-PBE-q6

       Description:                       Goedecker-Teter-Hutter pseudopotential
                                           Goedecker et al., PRB 54, 1703 (1996)
                                          Hartwigsen et al., PRB 58, 3641 (1998)
                                                      Krack, TCA 114, 145 (2005)

       Gaussian exponent of the core charge distribution:               8.360253
       Electronic configuration (s p d ...):                               2   4

       Parameters of the local part of the GTH pseudopotential:

                          rloc        C1          C2          C3          C4
                        0.244554  -16.667215    2.487311

       Parameters of the non-local part of the GTH pseudopotential:

                   l      r(l)      h(i,j,l)

                   0    0.220956   18.337458
                   1    0.211332

  2. Atomic kind: C                                     Number of atoms:      48

     Orbital Basis Set                                     DZVP-MOLOPT-SR-GTH-q4

       Number of orbital shell sets:                                           1
       Number of orbital shells:                                               5
       Number of primitive Cartesian functions:                                5
       Number of Cartesian basis functions:                                   14
       Number of spherical basis functions:                                   13
       Norm type:                                                              2

       Normalised Cartesian orbitals:

                        Set   Shell   Orbital            Exponent    Coefficient

                          1       1    2s                5.605331       0.322515
                                                         2.113016       0.213043
                                                         0.769911      -0.209686
                                                         0.348157      -0.219794
                                                         0.128212      -0.022789

                          1       2    3s                5.605331       0.552234
                                                         2.113016       0.082072
                                                         0.769911       0.007843
                                                         0.348157       0.136893
                                                         0.128212       0.074283

                          1       3    3px               5.605331      -0.703879
                                                         2.113016      -0.642521
                                                         0.769911      -0.374851
                                                         0.348157      -0.139743
                                                         0.128212      -0.027849
                          1       3    3py               5.605331      -0.703879
                                                         2.113016      -0.642521
                                                         0.769911      -0.374851
                                                         0.348157      -0.139743
                                                         0.128212      -0.027849
                          1       3    3pz               5.605331      -0.703879
                                                         2.113016      -0.642521
                                                         0.769911      -0.374851
                                                         0.348157      -0.139743
                                                         0.128212      -0.027849

                          1       4    4px               5.605331      -0.480376
                                                         2.113016      -0.552894
                                                         0.769911      -0.316145
                                                         0.348157       0.210505
                                                         0.128212       0.076095
                          1       4    4py               5.605331      -0.480376
                                                         2.113016      -0.552894
                                                         0.769911      -0.316145
                                                         0.348157       0.210505
                                                         0.128212       0.076095
                          1       4    4pz               5.605331      -0.480376
                                                         2.113016      -0.552894
                                                         0.769911      -0.316145
                                                         0.348157       0.210505
                                                         0.128212       0.076095

                          1       5    4dx2              5.605331       0.640026
                                                         2.113016       0.274300
                                                         0.769911       0.446711
                                                         0.348157       0.028674
                                                         0.128212       0.029790
                          1       5    4dxy              5.605331       1.108557
                                                         2.113016       0.475102
                                                         0.769911       0.773726
                                                         0.348157       0.049666
                                                         0.128212       0.051599
                          1       5    4dxz              5.605331       1.108557
                                                         2.113016       0.475102
                                                         0.769911       0.773726
                                                         0.348157       0.049666
                                                         0.128212       0.051599
                          1       5    4dy2              5.605331       0.640026
                                                         2.113016       0.274300
                                                         0.769911       0.446711
                                                         0.348157       0.028674
                                                         0.128212       0.029790
                          1       5    4dyz              5.605331       1.108557
                                                         2.113016       0.475102
                                                         0.769911       0.773726
                                                         0.348157       0.049666
                                                         0.128212       0.051599
                          1       5    4dz2              5.605331       0.640026
                                                         2.113016       0.274300
                                                         0.769911       0.446711
                                                         0.348157       0.028674
                                                         0.128212       0.029790

     Auxiliary Fit Basis Set                                               pFIT3

       Number of orbital shell sets:                                           7
       Number of orbital shells:                                               7
       Number of primitive Cartesian functions:                                7
       Number of Cartesian basis functions:                                   18
       Number of spherical basis functions:                                   17
       Norm type:                                                              2

       Normalised Cartesian orbitals:

                        Set   Shell   Orbital            Exponent    Coefficient

                          1       1    1s                0.143490       0.166160

                          2       1    1s                0.450840       0.392127

                          3       1    1s                4.420950       2.172935

                          4       1    1px               0.152150       0.135450
                          4       1    1py               0.152150       0.135450
                          4       1    1pz               0.152150       0.135450

                          5       1    1px               0.670820       0.865362
                          5       1    1py               0.670820       0.865362
                          5       1    1pz               0.670820       0.865362

                          6       1    1px               3.053900       5.754513
                          6       1    1py               3.053900       5.754513
                          6       1    1pz               3.053900       5.754513

                          7       1    1dx2              0.800000       1.113825
                          7       1    1dxy              0.800000       1.929201
                          7       1    1dxz              0.800000       1.929201
                          7       1    1dy2              0.800000       1.113825
                          7       1    1dyz              0.800000       1.929201
                          7       1    1dz2              0.800000       1.113825

       Atomic covalent radius [Angstrom]:                                  0.770

       Atomic van der Waals radius [Angstrom]:                             1.700

     GTH Potential information for                                    GTH-PBE-q4

       Description:                       Goedecker-Teter-Hutter pseudopotential
                                           Goedecker et al., PRB 54, 1703 (1996)
                                          Hartwigsen et al., PRB 58, 3641 (1998)
                                                      Krack, TCA 114, 145 (2005)

       Gaussian exponent of the core charge distribution:               4.364419
       Electronic configuration (s p d ...):                               2   2

       Parameters of the local part of the GTH pseudopotential:

                          rloc        C1          C2          C3          C4
                        0.338471   -8.803674    1.339211

       Parameters of the non-local part of the GTH pseudopotential:

                   l      r(l)      h(i,j,l)

                   0    0.302576    9.622487
                   1    0.291507

  3. Atomic kind: Al                                    Number of atoms:       6

     Orbital Basis Set                                        TZVP-MOLOPT-SR-GTH

       Number of orbital shell sets:                                           1
       Number of orbital shells:                                               7
       Number of primitive Cartesian functions:                                4
       Number of Cartesian basis functions:                                   18
       Number of spherical basis functions:                                   17
       Norm type:                                                              2

       Normalised Cartesian orbitals:

                        Set   Shell   Orbital            Exponent    Coefficient

                          1       1    2s                1.212902       0.246198
                                                         0.454181       0.177619
                                                         0.242419      -0.292403
                                                         0.078269      -0.036643

                          1       2    3s                1.212902       0.031948
                                                         0.454181      -0.030166
                                                         0.242419       0.083257
                                                         0.078269      -0.128826

                          1       3    4s                1.212902       0.808699
                                                         0.454181      -0.058969
                                                         0.242419       0.040660
                                                         0.078269       0.009096

                          1       4    3px               1.212902       0.097003
                                                         0.454181       0.030558
                                                         0.242419      -0.180998
                                                         0.078269      -0.023736
                          1       4    3py               1.212902       0.097003
                                                         0.454181       0.030558
                                                         0.242419      -0.180998
                                                         0.078269      -0.023736
                          1       4    3pz               1.212902       0.097003
                                                         0.454181       0.030558
                                                         0.242419      -0.180998
                                                         0.078269      -0.023736

                          1       5    4px               1.212902      -0.253113
                                                         0.454181       0.115031
                                                         0.242419       0.175992
                                                         0.078269      -0.078757
                          1       5    4py               1.212902      -0.253113
                                                         0.454181       0.115031
                                                         0.242419       0.175992
                                                         0.078269      -0.078757
                          1       5    4pz               1.212902      -0.253113
                                                         0.454181       0.115031
                                                         0.242419       0.175992
                                                         0.078269      -0.078757

                          1       6    5px               1.212902      -0.029156
                                                         0.454181       0.503504
                                                         0.242419      -0.002226
                                                         0.078269       0.008871
                          1       6    5py               1.212902      -0.029156
                                                         0.454181       0.503504
                                                         0.242419      -0.002226
                                                         0.078269       0.008871
                          1       6    5pz               1.212902      -0.029156
                                                         0.454181       0.503504
                                                         0.242419      -0.002226
                                                         0.078269       0.008871

                          1       7    4dx2              1.212902       0.395985
                                                         0.454181       0.099381
                                                         0.242419       0.069868
                                                         0.078269       0.005909
                          1       7    4dxy              1.212902       0.685866
                                                         0.454181       0.172133
                                                         0.242419       0.121014
                                                         0.078269       0.010235
                          1       7    4dxz              1.212902       0.685866
                                                         0.454181       0.172133
                                                         0.242419       0.121014
                                                         0.078269       0.010235
                          1       7    4dy2              1.212902       0.395985
                                                         0.454181       0.099381
                                                         0.242419       0.069868
                                                         0.078269       0.005909
                          1       7    4dyz              1.212902       0.685866
                                                         0.454181       0.172133
                                                         0.242419       0.121014
                                                         0.078269       0.010235
                          1       7    4dz2              1.212902       0.395985
                                                         0.454181       0.099381
                                                         0.242419       0.069868
                                                         0.078269       0.005909

     Auxiliary Fit Basis Set                                               cFIT8

       Number of orbital shell sets:                                           4
       Number of orbital shells:                                               4
       Number of primitive Cartesian functions:                                8
       Number of Cartesian basis functions:                                    8
       Number of spherical basis functions:                                    8
       Norm type:                                                              2

       Normalised Cartesian orbitals:

                        Set   Shell   Orbital            Exponent    Coefficient

                          1       1    1s                0.078277       0.105471

                          2       1    1s                0.205581      -0.273018
                                                         1.123843       0.481388
                                                         2.242430      -0.063738

                          3       1    1px               0.078278       0.059018
                          3       1    1py               0.078278       0.059018
                          3       1    1pz               0.078278       0.059018

                          4       1    1px               0.245450       0.244825
                                                         0.547270       0.035465
                                                         1.225940      -0.148550
                          4       1    1py               0.245450       0.244825
                                                         0.547270       0.035465
                                                         1.225940      -0.148550
                          4       1    1pz               0.245450       0.244825
                                                         0.547270       0.035465
                                                         1.225940      -0.148550

       Atomic covalent radius [Angstrom]:                                  1.180

       Atomic van der Waals radius [Angstrom]:                             1.840

     GTH Potential information for                                    GTH-PBE-q3

       Description:                       Goedecker-Teter-Hutter pseudopotential
                                           Goedecker et al., PRB 54, 1703 (1996)
                                          Hartwigsen et al., PRB 58, 3641 (1998)
                                                      Krack, TCA 114, 145 (2005)

       Gaussian exponent of the core charge distribution:               2.469136
       Electronic configuration (s p d ...):                               2   1

       Parameters of the local part of the GTH pseudopotential:

                          rloc        C1          C2          C3          C4
                        0.450000   -7.554761

       Parameters of the non-local part of the GTH pseudopotential:

                   l      r(l)      h(i,j,l)

                   0    0.487435    6.959938   -1.888836
                                   -1.888836    2.438477
                   1    0.562189    1.865299

  4. Atomic kind: H                                     Number of atoms:      24

     Orbital Basis Set                                     DZVP-MOLOPT-SR-GTH-q1

       Number of orbital shell sets:                                           1
       Number of orbital shells:                                               3
       Number of primitive Cartesian functions:                                5
       Number of Cartesian basis functions:                                    5
       Number of spherical basis functions:                                    5
       Norm type:                                                              2

       Normalised Cartesian orbitals:

                        Set   Shell   Orbital            Exponent    Coefficient

                          1       1    2s               10.068468      -0.133023
                                                         2.680223      -0.177618
                                                         0.791502      -0.258419
                                                         0.239116      -0.107525
                                                         0.082193      -0.014019

                          1       2    3s               10.068468       0.344673
                                                         2.680223       1.819821
                                                         0.791502      -0.999069
                                                         0.239116       0.017430
                                                         0.082193       0.082660

                          1       3    3px              10.068468       0.155326
                                                         2.680223       0.367157
                                                         0.791502       0.311480
                                                         0.239116       0.080105
                                                         0.082193       0.033440
                          1       3    3py              10.068468       0.155326
                                                         2.680223       0.367157
                                                         0.791502       0.311480
                                                         0.239116       0.080105
                                                         0.082193       0.033440
                          1       3    3pz              10.068468       0.155326
                                                         2.680223       0.367157
                                                         0.791502       0.311480
                                                         0.239116       0.080105
                                                         0.082193       0.033440

     Auxiliary Fit Basis Set                                               pFIT3

       Number of orbital shell sets:                                           4
       Number of orbital shells:                                               4
       Number of primitive Cartesian functions:                                4
       Number of Cartesian basis functions:                                    6
       Number of spherical basis functions:                                    6
       Norm type:                                                              2

       Normalised Cartesian orbitals:

                        Set   Shell   Orbital            Exponent    Coefficient

                          1       1    1s                0.113290       0.139173

                          2       1    1s                0.551250       0.455955

                          3       1    1s                3.585030       1.856862

                          4       1    1px               1.000000       1.425411
                          4       1    1py               1.000000       1.425411
                          4       1    1pz               1.000000       1.425411

       Atomic covalent radius [Angstrom]:                                  0.320

       Atomic van der Waals radius [Angstrom]:                             1.090

     GTH Potential information for                                    GTH-PBE-q1

       Description:                       Goedecker-Teter-Hutter pseudopotential
                                           Goedecker et al., PRB 54, 1703 (1996)
                                          Hartwigsen et al., PRB 58, 3641 (1998)
                                                      Krack, TCA 114, 145 (2005)

       Gaussian exponent of the core charge distribution:              12.500000
       Electronic configuration (s p d ...):                                   1

       Parameters of the local part of the GTH pseudopotential:

                          rloc        C1          C2          C3          C4
                        0.200000   -4.178900    0.724463


 MOLECULE KIND INFORMATION


 All atoms are their own molecule, skipping detailed information


 TOTAL NUMBERS AND MAXIMUM NUMBERS

  Total number of            - Atomic kinds:                                   4
                             - Atoms:                                        116
                             - Shell sets:                                   116
                             - Shells:                                       544
                             - Primitive Cartesian functions:                650
                             - Cartesian basis functions:                   1432
                             - Spherical basis functions:                   1340

  Maximum angular momentum of- Orbital basis functions:                        2
                             - Local part of the GTH pseudopotential:          2
                             - Non-local part of the GTH pseudopotential:      2

  AUX_FIT ADMM-Basis: 
  Total number of            - Shell sets:                                   722
                             - Shells:                                       722
                             - Primitive Cartesian functions:                746
                             - Cartesian basis functions:                   1740
                             - Spherical basis functions:                   1654
                               Maximum angular momentum                        2


 MODULE QUICKSTEP:  ATOMIC COORDINATES IN angstrom

 Atom  Kind  Element       X           Y           Z          Z(eff)       Mass
    1   1 O    8       1.293374    7.764894   11.331212       6.0000     15.9994
    2   1 O    8      -2.491136    9.670964   11.331432       6.0000     15.9994
    3   1 O    8       1.083068   12.010620   11.399473       6.0000     15.9994
    4   1 O    8       2.385900    9.772713   11.458958       6.0000     15.9994
    5   1 O    8      -1.206569   11.905095   11.463117       6.0000     15.9994
    6   1 O    8      -1.263177    7.739804   11.385297       6.0000     15.9994
    7   2 C    6       2.236593    8.521892   11.768419       4.0000     12.0107
    8   2 C    6      -2.282745    8.447379   11.715403       4.0000     12.0107
    9   2 C    6      -0.081013   12.436450   11.795553       4.0000     12.0107
   10   1 O    8       1.272889    7.826981    8.760451       6.0000     15.9994
   11   1 O    8      -2.425032    9.747737    8.761855       6.0000     15.9994
   12   1 O    8       1.076599   11.998282    8.827193       6.0000     15.9994
   13   1 O    8       2.449578    9.788150    8.888715       6.0000     15.9994
   14   1 O    8      -1.214596   12.016599    8.894766       6.0000     15.9994
   15   1 O    8      -1.301054    7.753071    8.826167       6.0000     15.9994
   16   3 Al  13       0.001153    8.096404   10.083682       3.0000     26.9815
   17   3 Al  13      -1.543261   10.681087   10.119101       3.0000     26.9815
   18   3 Al  13       1.460845   10.720271   10.136048       3.0000     26.9815
   19   1 O    8      -0.029049    9.833667   10.109049       6.0000     15.9994
   20   2 C    6       2.293865    8.575302    8.474175       4.0000     12.0107
   21   2 C    6      -2.281200    8.499903    8.463206       4.0000     12.0107
   22   2 C    6      -0.079887   12.494292    8.509313       4.0000     12.0107
   23   1 O    8       7.181722    6.915442    4.722329       6.0000     15.9994
   24   1 O    8      10.893664    5.032766    4.720914       6.0000     15.9994
   25   1 O    8       7.394650    2.736669    4.591553       6.0000     15.9994
   26   1 O    8       6.030238    4.940587    4.593913       6.0000     15.9994
   27   1 O    8       9.686439    2.763622    4.585510       6.0000     15.9994
   28   1 O    8       9.763889    7.024688    4.657280       6.0000     15.9994
   29   2 C    6       6.171798    6.153622    5.010819       4.0000     12.0107
   30   2 C    6      10.745361    6.279885    5.021210       4.0000     12.0107
   31   2 C    6       8.551498    2.265077    4.942070       4.0000     12.0107
   32   1 O    8       7.171865    7.019440    2.153115       6.0000     15.9994
   33   1 O    8      10.948997    5.128048    2.149566       6.0000     15.9994
   34   1 O    8       7.409912    2.809022    2.017017       6.0000     15.9994
   35   1 O    8       6.077876    5.013943    2.022401       6.0000     15.9994
   36   1 O    8       9.699724    2.878309    2.016522       6.0000     15.9994
   37   1 O    8       9.717101    7.056760    2.098455       6.0000     15.9994
   38   3 Al  13       8.460230    6.679948    3.401602       3.0000     26.9815
   39   3 Al  13      10.016662    4.102972    3.362918       3.0000     26.9815
   40   3 Al  13       7.015137    4.049014    3.319000       3.0000     26.9815
   41   1 O    8       8.499346    4.943740    3.371414       6.0000     15.9994
   42   2 C    6       6.227305    6.265234    1.715052       4.0000     12.0107
   43   2 C    6      10.728683    6.345331    1.753655       4.0000     12.0107
   44   2 C    6       8.575974    2.372816    1.642150       4.0000     12.0107
   45   2 C    6      -3.279127    7.866216   12.599892       4.0000     12.0107
   46   2 C    6      -4.299551    8.714998   -0.411783       4.0000     12.0107
   47   2 C    6      11.696390    8.277430    0.432589       4.0000     12.0107
   48   2 C    6      11.704445    6.918544    0.841226       4.0000     12.0107
   49   2 C    6      12.719323    6.067558   13.845521       4.0000     12.0107
   50   2 C    6      -3.280353    6.504030   12.996429       4.0000     12.0107
   51   4 H    1      -4.266768    9.754034   -0.731381       1.0000      1.0079
   52   1 O    8      10.726944    9.142799    0.877761       6.0000     15.9994
   53   4 H    1      12.687509    5.028946   14.166674       1.0000      1.0079
   54   1 O    8      -2.320839    5.635593   12.537272       6.0000     15.9994
   55   4 H    1      14.481323    4.763499   12.922279       1.0000      1.0079
   56   4 H    1      -6.078931   10.012218    0.484971       1.0000      1.0079
   57   2 C    6      11.759547    6.876852    5.882688       4.0000     12.0107
   58   2 C    6      12.388365    6.046602    6.825040       4.0000     12.0107
   59   2 C    6      13.344745    6.538398    7.700069       4.0000     12.0107
   60   2 C    6      -3.297716    7.903210    7.603979       4.0000     12.0107
   61   2 C    6      -3.926444    8.733142    6.661365       4.0000     12.0107
   62   2 C    6      -4.882970    8.241416    5.786475       4.0000     12.0107
   63   4 H    1      12.080667    5.003509    6.867969       1.0000      1.0079
   64   1 O    8      13.894141    5.758216    8.689019       6.0000     15.9994
   65   4 H    1      -3.618341    9.775977    6.617848       1.0000      1.0079
   66   1 O    8      -5.432382    9.021124    4.797315       6.0000     15.9994
   67   4 H    1      -4.967136    9.876273    4.800165       1.0000      1.0079
   68   4 H    1      13.430311    4.902392    8.685092       1.0000      1.0079
   69   2 C    6       8.559272    1.115317    5.837821       4.0000     12.0107
   70   2 C    6       7.374449    0.820622    6.542908       4.0000     12.0107
   71   2 C    6      -1.222234   14.484408    7.431399       4.0000     12.0107
   72   2 C    6      -0.089306   13.648549    7.619979       4.0000     12.0107
   73   2 C    6       1.095242   13.943860    6.914803       4.0000     12.0107
   74   2 C    6       9.694769    0.285499    6.034032       4.0000     12.0107
   75   4 H    1       6.523436    1.479868    6.384108       1.0000      1.0079
   76   1 O    8      -2.374295   14.265243    8.151222       6.0000     15.9994
   77   4 H    1       1.944991   13.282532    7.070884       1.0000      1.0079
   78   1 O    8      10.852625    0.515776    5.327758       6.0000     15.9994
   79   4 H    1      11.458310   -0.222863    5.519021       1.0000      1.0079
   80   4 H    1      -2.978153   15.005405    7.959787       1.0000      1.0079
   81   2 C    6      -0.086196   13.603699   12.660923       4.0000     12.0107
   82   2 C    6       1.123045   14.317127   12.798811       4.0000     12.0107
   83   2 C    6       9.732850    0.745372    0.075108       4.0000     12.0107
   84   2 C    6       8.583124    1.219838    0.758018       4.0000     12.0107
   85   2 C    6       7.372677    0.511116    0.614117       4.0000     12.0107
   86   2 C    6      -1.237163   14.082285   13.339402       4.0000     12.0107
   87   4 H    1       1.987525   13.935314   12.261374       1.0000      1.0079
   88   1 O    8      10.920284    1.437861    0.139565       6.0000     15.9994
   89   4 H    1       6.507466    0.892794    1.150351       1.0000      1.0079
   90   1 O    8      -2.427150   13.396465   13.274855       6.0000     15.9994
   91   4 H    1      -3.059597   13.874606    0.357881       1.0000      1.0079
   92   4 H    1      11.555055    0.963208   13.056348       1.0000      1.0079
   93   2 C    6       5.249912    6.866276    0.820889       4.0000     12.0107
   94   2 C    6       4.068347    6.145998    0.569207       4.0000     12.0107
   95   2 C    6       3.047858    6.642293   -0.224250       4.0000     12.0107
   96   2 C    6       3.213989    7.921910   12.663879       4.0000     12.0107
   97   2 C    6       4.395956    8.641975   12.915201       4.0000     12.0107
   98   2 C    6       5.416794    8.145217   13.708127       4.0000     12.0107
   99   4 H    1       3.969265    5.172015    1.043018       1.0000      1.0079
  100   1 O    8       1.890878    5.926868   -0.407809       6.0000     15.9994
  101   4 H    1       4.495528    9.615336   12.440501       1.0000      1.0079
  102   1 O    8       6.576151    8.856916   13.889811       6.0000     15.9994
  103   4 H    1       6.512649    9.656325   13.337511       1.0000      1.0079
  104   4 H    1       1.956180    5.127781    0.145006       1.0000      1.0079
  105   2 C    6       5.158450    6.719932    5.887111       4.0000     12.0107
  106   2 C    6       5.468070    7.933942    6.534330       4.0000     12.0107
  107   2 C    6       4.582864    8.577452    7.381565       4.0000     12.0107
  108   2 C    6       3.306035    7.998079    7.602684       4.0000     12.0107
  109   2 C    6       2.996409    6.782557    6.955621       4.0000     12.0107
  110   2 C    6       3.882906    6.138440    6.108520       4.0000     12.0107
  111   4 H    1       6.454286    8.355447    6.353504       1.0000      1.0079
  112   1 O    8       4.946382    9.738356    8.023953       6.0000     15.9994
  113   4 H    1       2.009714    6.361861    7.136059       1.0000      1.0079
  114   1 O    8       3.526818    4.975633    5.463179       6.0000     15.9994
  115   4 H    1       2.602252    4.788153    5.706100       1.0000      1.0079
  116   4 H    1       5.871166    9.920875    7.777705       1.0000      1.0079




 SCF PARAMETERS         Density guess:                                   RESTART
                        --------------------------------------------------------
                        max_scf:                                              50
                        max_scf_history:                                       0
                        max_diis:                                              4
                        --------------------------------------------------------
                        eps_scf:                                        1.00E-06
                        eps_scf_history:                                0.00E+00
                        eps_diis:                                       1.00E-01
                        eps_eigval:                                     1.00E-05
                        --------------------------------------------------------
                        level_shift [a.u.]:                                 0.00
                        --------------------------------------------------------
                        Outer loop SCF in use 
                        No variables optimised in outer loop
                        eps_scf                                         1.00E-06
                        max_scf                                               50
                        No outer loop optimization
                        step_size                                       5.00E-01

 PW_GRID| Information for grid number                                          1
 PW_GRID| Grid distributed over                                    36 processors
 PW_GRID| Real space group dimensions                                    36    1
 PW_GRID| the grid is blocked:                                                NO
 PW_GRID| Cutoff [a.u.]                                                    300.0
 PW_GRID| spherical cutoff:                                                   NO
 PW_GRID|   Bounds   1           -128     127                Points:         256
 PW_GRID|   Bounds   2           -128     127                Points:         256
 PW_GRID|   Bounds   3           -100      99                Points:         200
 PW_GRID| Volume element (a.u.^3)  0.1738E-02     Volume (a.u.^3)     22775.7403
 PW_GRID| Grid span                                                    FULLSPACE
 PW_GRID|   Distribution                         Average         Max         Min
 PW_GRID|   G-Vectors                           364088.9      364288      364032
 PW_GRID|   G-Rays                                1422.2        1423        1422
 PW_GRID|   Real Space Points                   364088.9      409600      358400

 PW_GRID| Information for grid number                                          2
 PW_GRID| Number of the reference grid                                         1
 PW_GRID| Grid distributed over                                    36 processors
 PW_GRID| Real space group dimensions                                    36    1
 PW_GRID| the grid is blocked:                                                NO
 PW_GRID| Cutoff [a.u.]                                                    100.0
 PW_GRID| spherical cutoff:                                                   NO
 PW_GRID|   Bounds   1            -75      74                Points:         150
 PW_GRID|   Bounds   2            -75      74                Points:         150
 PW_GRID|   Bounds   3            -60      59                Points:         120
 PW_GRID| Volume element (a.u.^3)  0.8435E-02     Volume (a.u.^3)     22775.7403
 PW_GRID| Grid span                                                    FULLSPACE
 PW_GRID|   Distribution                         Average         Max         Min
 PW_GRID|   G-Vectors                            75000.0       76050       73500
 PW_GRID|   G-Rays                                 500.0         507         490
 PW_GRID|   Real Space Points                    75000.0       90000       72000

 PW_GRID| Information for grid number                                          3
 PW_GRID| Number of the reference grid                                         1
 PW_GRID| Grid distributed over                                    36 processors
 PW_GRID| Real space group dimensions                                    36    1
 PW_GRID| the grid is blocked:                                                NO
 PW_GRID| Cutoff [a.u.]                                                     33.3
 PW_GRID| spherical cutoff:                                                   NO
 PW_GRID|   Bounds   1            -45      44                Points:          90
 PW_GRID|   Bounds   2            -45      44                Points:          90
 PW_GRID|   Bounds   3            -36      35                Points:          72
 PW_GRID| Volume element (a.u.^3)  0.3905E-01     Volume (a.u.^3)     22775.7403
 PW_GRID| Grid span                                                    FULLSPACE
 PW_GRID|   Distribution                         Average         Max         Min
 PW_GRID|   G-Vectors                            16200.0       16290       16110
 PW_GRID|   G-Rays                                 180.0         181         179
 PW_GRID|   Real Space Points                    16200.0       19440       12960

 PW_GRID| Information for grid number                                          4
 PW_GRID| Number of the reference grid                                         1
 PW_GRID| Grid distributed over                                    36 processors
 PW_GRID| Real space group dimensions                                    36    1
 PW_GRID| the grid is blocked:                                                NO
 PW_GRID| Cutoff [a.u.]                                                     11.1
 PW_GRID| spherical cutoff:                                                   NO
 PW_GRID|   Bounds   1            -27      26                Points:          54
 PW_GRID|   Bounds   2            -27      26                Points:          54
 PW_GRID|   Bounds   3            -20      19                Points:          40
 PW_GRID| Volume element (a.u.^3)  0.1953         Volume (a.u.^3)     22775.7403
 PW_GRID| Grid span                                                    FULLSPACE
 PW_GRID|   Distribution                         Average         Max         Min
 PW_GRID|   G-Vectors                             3240.0        3348        3132
 PW_GRID|   G-Rays                                  60.0          62          58
 PW_GRID|   Real Space Points                     3240.0        4320        2160

 POISSON| Solver                                                        PERIODIC
 POISSON| Periodicity                                                        XYZ

 RS_GRID| Information for grid number                                          1
 RS_GRID|   Bounds   1           -128     127                Points:         256
 RS_GRID|   Bounds   2           -128     127                Points:         256
 RS_GRID|   Bounds   3           -100      99                Points:         200
 RS_GRID| Real space distribution over                                  6 groups
 RS_GRID| Real space distribution along direction                              1
 RS_GRID| Border size                                                         42
 RS_GRID| Real space distribution over                                  6 groups
 RS_GRID| Real space distribution along direction                              2
 RS_GRID| Border size                                                         42
 RS_GRID|   Distribution                         Average         Max         Min
 RS_GRID|   Planes                                 126.7         127         126
 RS_GRID|   Distribution                         Average         Max         Min
 RS_GRID|   Planes                                 126.7         127         126

 RS_GRID| Information for grid number                                          2
 RS_GRID|   Bounds   1            -75      74                Points:         150
 RS_GRID|   Bounds   2            -75      74                Points:         150
 RS_GRID|   Bounds   3            -60      59                Points:         120
 RS_GRID| Real space fully replicated
 RS_GRID| Group size                                                           1

 RS_GRID| Information for grid number                                          3
 RS_GRID|   Bounds   1            -45      44                Points:          90
 RS_GRID|   Bounds   2            -45      44                Points:          90
 RS_GRID|   Bounds   3            -36      35                Points:          72
 RS_GRID| Real space fully replicated
 RS_GRID| Group size                                                           1

 RS_GRID| Information for grid number                                          4
 RS_GRID|   Bounds   1            -27      26                Points:          54
 RS_GRID|   Bounds   2            -27      26                Points:          54
 RS_GRID|   Bounds   3            -20      19                Points:          40
 RS_GRID| Real space fully replicated
 RS_GRID| Group size                                                           1

 CELL_OPT| Pressure tolerance [bar]:                                       100.0
 CELL_OPT| Keep angles between the cell vectors:                              NO
 CELL_OPT| Keep cell symmetry:                                                NO
 CELL_OPT| Constraint:                                                      NONE

 *******************************************************************************
 ***                     STARTING   CELL   OPTIMIZATION                      ***
 ***                                 L-BFGS                                  ***
 *******************************************************************************

 --------------------------
 OPTIMIZATION STEP:      1
 --------------------------

 CELL| Volume [angstrom^3]:                                          3375.016460
 CELL| Vector a [angstrom]:      17.002     0.000     0.000   |a| =    17.001520
 CELL| Vector b [angstrom]:      -8.501    14.724     0.000   |b| =    17.001620
 CELL| Vector c [angstrom]:       0.000     0.000    13.482   |c| =    13.482400
 CELL| Angle (b,c), alpha [degree]:                                    90.000000
 CELL| Angle (a,c), beta  [degree]:                                    90.000000
 CELL| Angle (a,b), gamma [degree]:                                   120.000000
 CELL| Numerically orthorhombic:                                              NO

 -------------------------------------------------------------------------------
 ----                             MULTIGRID INFO                            ----
 -------------------------------------------------------------------------------
 count for grid        1:         564048          cutoff [a.u.]          300.00
 count for grid        2:         517248          cutoff [a.u.]          100.00
 count for grid        3:         408096          cutoff [a.u.]           33.33
 count for grid        4:         150480          cutoff [a.u.]           11.11
 total gridlevel count  :        1639872

 PW_GRID| Information for grid number                                          5
 PW_GRID| Grid distributed over                                    36 processors
 PW_GRID| Real space group dimensions                                    36    1
 PW_GRID| the grid is blocked:                                                NO
 PW_GRID| Cutoff [a.u.]                                                    300.0
 PW_GRID| spherical cutoff:                                                   NO
 PW_GRID|   Bounds   1           -128     127                Points:         256
 PW_GRID|   Bounds   2           -128     127                Points:         256
 PW_GRID|   Bounds   3           -100      99                Points:         200
 PW_GRID| Volume element (a.u.^3)  0.1738E-02     Volume (a.u.^3)     22775.7403
 PW_GRID| Grid span                                                    FULLSPACE
 PW_GRID|   Distribution                         Average         Max         Min
 PW_GRID|   G-Vectors                           364088.9      364288      364032
 PW_GRID|   G-Rays                                1422.2        1423        1422
 PW_GRID|   Real Space Points                   364088.9      409600      358400

 PW_GRID| Information for grid number                                          6
 PW_GRID| Number of the reference grid                                         5
 PW_GRID| Grid distributed over                                    36 processors
 PW_GRID| Real space group dimensions                                    36    1
 PW_GRID| the grid is blocked:                                                NO
 PW_GRID| Cutoff [a.u.]                                                    100.0
 PW_GRID| spherical cutoff:                                                   NO
 PW_GRID|   Bounds   1            -75      74                Points:         150
 PW_GRID|   Bounds   2            -75      74                Points:         150
 PW_GRID|   Bounds   3            -60      59                Points:         120
 PW_GRID| Volume element (a.u.^3)  0.8435E-02     Volume (a.u.^3)     22775.7403
 PW_GRID| Grid span                                                    FULLSPACE
 PW_GRID|   Distribution                         Average         Max         Min
 PW_GRID|   G-Vectors                            75000.0       76050       73500
 PW_GRID|   G-Rays                                 500.0         507         490
 PW_GRID|   Real Space Points                    75000.0       90000       72000

 PW_GRID| Information for grid number                                          7
 PW_GRID| Number of the reference grid                                         5
 PW_GRID| Grid distributed over                                    36 processors
 PW_GRID| Real space group dimensions                                    36    1
 PW_GRID| the grid is blocked:                                                NO
 PW_GRID| Cutoff [a.u.]                                                     33.3
 PW_GRID| spherical cutoff:                                                   NO
 PW_GRID|   Bounds   1            -45      44                Points:          90
 PW_GRID|   Bounds   2            -45      44                Points:          90
 PW_GRID|   Bounds   3            -36      35                Points:          72
 PW_GRID| Volume element (a.u.^3)  0.3905E-01     Volume (a.u.^3)     22775.7403
 PW_GRID| Grid span                                                    FULLSPACE
 PW_GRID|   Distribution                         Average         Max         Min
 PW_GRID|   G-Vectors                            16200.0       16290       16110
 PW_GRID|   G-Rays                                 180.0         181         179
 PW_GRID|   Real Space Points                    16200.0       19440       12960

 PW_GRID| Information for grid number                                          8
 PW_GRID| Number of the reference grid                                         5
 PW_GRID| Grid distributed over                                    36 processors
 PW_GRID| Real space group dimensions                                    36    1
 PW_GRID| the grid is blocked:                                                NO
 PW_GRID| Cutoff [a.u.]                                                     11.1
 PW_GRID| spherical cutoff:                                                   NO
 PW_GRID|   Bounds   1            -27      26                Points:          54
 PW_GRID|   Bounds   2            -27      26                Points:          54
 PW_GRID|   Bounds   3            -20      19                Points:          40
 PW_GRID| Volume element (a.u.^3)  0.1953         Volume (a.u.^3)     22775.7403
 PW_GRID| Grid span                                                    FULLSPACE
 PW_GRID|   Distribution                         Average         Max         Min
 PW_GRID|   G-Vectors                             3240.0        3348        3132
[...]
 flops    17 x    32 x     5          12332436480       0.0%      0.2%     99.8%
 flops     5 x    32 x    17          12332436480       0.0%      0.2%     99.8%
 flops     5 x    32 x     5          14508748800       0.0%      0.2%     99.8%
 flops    17 x    32 x    32          15365554176       0.0%      0.0%    100.0%
 flops     5 x    32 x    32          18077122560       0.0%      0.0%    100.0%
 flops    32 x    32 x    17          22222147584       0.0%      0.0%    100.0%
 flops    32 x    32 x     5          26143703040       0.0%      0.0%    100.0%
 flops    32 x    32 x    32          36101029888       0.0%      0.0%    100.0%
 flops    13 x     7 x    13          39202670416       0.0%      1.7%     98.3%
 flops    13 x     1 x    13          90454860340       0.0%    100.0%      0.0%
 flops    13 x    13 x    32         108166251648       0.0%      0.0%    100.0%
 flops    17 x    32 x    13         114897199872       0.0%      0.0%    100.0%
 flops    13 x    32 x    17         114897199872       0.0%      0.0%    100.0%
 flops     5 x    32 x    13         135173176320       0.0%      0.2%     99.8%
 flops    13 x    32 x     5         135173176320       0.0%      0.2%     99.8%
 flops    13 x    32 x    32         168418525184       0.0%      0.0%    100.0%
 flops    32 x    32 x    13         243572166656       0.0%      0.0%    100.0%
 flops    13 x    32 x    13        1254485453312       0.0%      0.0%    100.0%
 flops inhomo. stacks                           0       0.0%      0.0%      0.0%
 flops total                         2.729270E+12       0.0%      5.3%     94.7%
 flops max/rank                    151.375106E+09       0.0%     16.2%     83.8%
 matmuls inhomo. stacks                         0       0.0%      0.0%      0.0%
 matmuls total                          807136752       0.0%     64.1%     35.9%
 number of processed stacks              26042829       0.0%     62.8%     37.2%
 average stack size                                     0.0      31.6      29.9
 marketing flops                     2.902921E+12
 -------------------------------------------------------------------------------
 # multiplications                         265248
 max memory usage/rank             891.707392E+06
 # max total images/rank                        1
 # max 3D layers                                1
 # MPI messages exchanged                95489280
 MPI messages size (bytes):
  total size                         3.146842E+12
  min size                           0.000000E+00
  max size                         401.408000E+03
  average size                      32.954930E+03
 MPI breakdown and total messages size (bytes):
             size <=      128            75320130                 10390480
       128 < size <=     8192             6791860              18560004000
      8192 < size <=    32768             1416830              21121570560
     32768 < size <=   131072             5005980             345358468000
    131072 < size <=  4194304             6954480            2764414354000
   4194304 < size <= 16777216                   0                        0
  16777216 < size                               0                        0
 -------------------------------------------------------------------------------
 -                                                                             -
 -                      DBCSR MESSAGE PASSING PERFORMANCE                      -
 -                                                                             -
 -------------------------------------------------------------------------------
 ROUTINE             CALLS      AVE VOLUME [Bytes]
 MP_Bcast              119                     12.
 MP_Allreduce       852986                      8.
 MP_Alltoall        838516                   4844.
 MP_ISend          6362984                  14814.
 MP_IRecv          6362984                  14681.
 -------------------------------------------------------------------------------

 -------------------------------------------------------------------------------
 -                                                                             -
 -                                GRID STATISTICS                              -
 -                                                                             -
 -------------------------------------------------------------------------------
 LP    KERNEL             BACKEND                              COUNT     PERCENT
 4     collocate general  GPU                               20436205      34.33%
 4     integrate general  GPU                               17865904      30.01%
 3     collocate general  GPU                                8172953      13.73%
 3     integrate general  GPU                                7144928      12.00%
 7     integrate general  GPU                                2510614       4.22%
 2     collocate general  GPU                                1019546       1.71%
 6     integrate general  GPU                                1004167       1.69%
 2     integrate general  GPU                                 891336       1.50%
 0     collocate general  REF                                 179568       0.30%
 3     integrate general  REF                                 175392       0.29%
 5     integrate general  GPU                                 125245       0.21%
 -------------------------------------------------------------------------------

 MEMORY| Estimated peak process memory [MiB]                                 864

 -------------------------------------------------------------------------------
 ----                             MULTIGRID INFO                            ----
 -------------------------------------------------------------------------------
 count for grid        1:         594382          cutoff [a.u.]          300.00
 count for grid        2:         550798          cutoff [a.u.]          100.00
 count for grid        3:         466878          cutoff [a.u.]           33.33
 count for grid        4:         200834          cutoff [a.u.]           11.11
 total gridlevel count  :        1812892

 -------------------------------------------------------------------------------
 -                                                                             -
 -                         MESSAGE PASSING PERFORMANCE                         -
 -                                                                             -
 -------------------------------------------------------------------------------

 ROUTINE             CALLS      AVE VOLUME [Bytes]
 MP_Group              172
 MP_Bcast            63112                  30962.
 MP_Allreduce       157545                    297.
 MP_Sync             11002
 MP_Alltoall          7086               13997225.
 MP_SendRecv          5880                   1425.
 MP_ISendRecv        71715                 303360.
 MP_Wait             81699
 MP_comm_split        5415
 MP_ISend             7680                2776812.
 MP_IRecv             7680                2776787.
 MP_Recv               301                 343040.
 -------------------------------------------------------------------------------


 -------------------------------------------------------------------------------
 -                                                                             -
 -                           R E F E R E N C E S                               -
 -                                                                             -
 -------------------------------------------------------------------------------
 
 CP2K version 9.1, the CP2K developers group (2021).
 CP2K is freely available from https://www.cp2k.org/ .

 Kuehne,Thomas D.; Iannuzzi,Marcella; Del Ben,Mauro;
 Rybkin,Vladimir V.; Seewald,Patrick; Stein,Frederick; Laino,Teodoro;
 Khaliullin,Rustam Z.; Schuett,Ole; Schiffmann,Florian; Golze,Dorothea;
 Wilhelm,Jan; Chulkov,Sergey; Bani-Hashemian,Mohammad Hossein;
 Weber,Valery; Borstnik,Urban; Taillefumier,Mathieu;
 Jakobovits,Alice Shoshana; Lazzaro,Alfio; Pabst,Hans; Mueller,Tiziano;
 Schade,Robert; Guidon,Manuel; Andermatt,Samuel; Holmberg,Nico;
 Schenter,Gregory K.; Hehn,Anna; Bussy,Augustin; Belleflamme,Fabian;
 Tabacchi,Gloria; Gloess,Andreas; Lass,Michael; Bethune,Iain;
 Mundy,Christopher J.; Plessl,Christian; Watkins,Matt;
 VandeVondele,Joost; Krack,Matthias; Hutter,Juerg. 
 The Journal of Chemical Physics, 152 (19), (2020). 
 CP2K: An electronic structure and molecular dynamics software package -
 Quickstep: Efficient and accurate electronic structure calculations.
 https://doi.org/10.1063/5.0007045

 Goerigk, Lars; Hansen, Andreas; Bauer, Christoph; Ehrlich, Stephan;
 Najibi, Asim; Grimme, Stefan. , 19 (48), (2017). 
 A look at the density functional theory zoo with the advanced GMTKN55 database
 for general main group thermochemistry, kinetics and noncovalent interactions.
 https://doi.org/10.1039/C7CP04913G

 Schuett, Ole; Messmer, Peter; Hutter, Juerg; VandeVondele, Joost. 
 Electronic Structure Calculations on Graphics Processing Units, John
 Wiley & Sons, Ltd, 173-190 (2016). 
 GPU-Accelerated Sparse Matrix-Matrix Multiplication for
 Linear Scaling Density Functional Theory.
 https://doi.org/10.1002/9781118670712.ch8

 Borstnik, U; VandeVondele, J; Weber, V; Hutter, J. 
 PARALLEL COMPUTING, 40 (5-6), 47-58 (2014). 
 Sparse matrix multiplication: The distributed block-compressed sparse
 row library.
 https://doi.org/10.1016/j.parco.2014.03.012

 Hutter, J; Iannuzzi, M; Schiffmann, F; VandeVondele, J. 
 WIREs Comput Mol Sci., 4 (1), 15-25 (2014). 
 CP2K: atomistic simulations of condensed matter systems.
 https://doi.org/10.1002/wcms.1159

 Marek, A; Blum, V; Johanni, R; Havu, V; Lang, B; Auckenthaler, T;
 Heinecke, A; Bungartz, H; Lederer, H. 
 Journal of Physics: Condensed Matter, 26 (21), (2014). 
 The ELPA library: scalable parallel eigenvalue solutions for
 electronic structure
 theory and computational science.
 https://doi.org/10.1088/0953-8984/26/21/213201

 Grimme, S; Ehrlich, S; Goerigk, L. 
 JOURNAL OF COMPUTATIONAL CHEMISTRY, 32, 1456 (2011). 
 Effect of the damping function in dispersion corrected density functional theory.
 https://doi.org/10.1002/jcc.21759

 Grimme, S; Antony, J; Ehrlich, S; Krieg, H. 
 JOURNAL OF CHEMICAL PHYSICS, 132 (15), 154104 (2010). 
 A consistent and accurate ab initio parametrization of density
 functional dispersion correction (DFT-D) for the 94 elements H-Pu.
 https://doi.org/10.1063/1.3382344

 VandeVondele, J; Hutter, J. 
 JOURNAL OF CHEMICAL PHYSICS, 127 (11), 114105 (2007). 
 Gaussian basis sets for accurate calculations on molecular systems in
 gas and condensed phases.
 https://doi.org/10.1063/1.2770708

 Kuhne, TD; Krack, M; Mohamed, FR; Parrinello, M. 
 PHYSICAL REVIEW LETTERS, 98 (6), 066401 (2007). 
 Efficient and accurate Car-Parrinello-like approach to
 Born-Oppenheimer molecular dynamics.
 https://doi.org/10.1103/PhysRevLett.98.066401

 Krack, M. 
 THEORETICAL CHEMISTRY ACCOUNTS, 114 (1-3), 145-152 (2005). 
 Pseudopotentials for H to Kr optimized for gradient-corrected
 exchange-correlation functionals.
 https://doi.org/10.1007/s00214-005-0655-y

 VandeVondele, J; Krack, M; Mohamed, F; Parrinello, M; Chassaing, T;
 Hutter, J. COMPUTER PHYSICS COMMUNICATIONS, 167 (2), 103-128 (2005). 
 QUICKSTEP: Fast and accurate density functional calculations using a
 mixed Gaussian and plane waves approach.
 https://doi.org/10.1016/j.cpc.2004.12.014

 Frigo, M; Johnson, SG. 
 PROCEEDINGS OF THE IEEE, 93 (2), 216-231 (2005). 
 The design and implementation of FFTW3.
 https://doi.org/10.1109/JPROC.2004.840301

 Kolafa, J. 
 JOURNAL OF COMPUTATIONAL CHEMISTRY, 25 (3), 335-342 (2004). 
 Time-reversible always stable predictor-corrector method for
 molecular dynamics of polarizable molecules.
 https://doi.org/10.1002/jcc.10385

 VandeVondele, J; Hutter, J. 
 JOURNAL OF CHEMICAL PHYSICS, 118 (10), 4365-4369 (2003). 
 An efficient orbital transformation method for electronic structure
 calculations.
 https://doi.org/10.1063/1.1543154

 Hartwigsen, C; Goedecker, S; Hutter, J. 
 PHYSICAL REVIEW B, 58 (7), 3641-3662 (1998). 
 Relativistic separable dual-space Gaussian pseudopotentials from H to Rn.
 https://doi.org/10.1103/PhysRevB.58.3641

 Lippert, G; Hutter, J; Parrinello, M. 
 MOLECULAR PHYSICS, 92 (3), 477-487 (1997). 
 A hybrid Gaussian and plane wave density functional scheme.
 https://doi.org/10.1080/002689797170220

 Perdew, JP; Burke, K; Ernzerhof, M. 
 PHYSICAL REVIEW LETTERS, 77 (18), 3865-3868 (1996). 
 Generalized gradient approximation made simple.
 https://doi.org/10.1103/PhysRevLett.77.3865

 Goedecker, S; Teter, M; Hutter, J. 
 PHYSICAL REVIEW B, 54 (3), 1703-1710 (1996). 
 Separable dual-space Gaussian pseudopotentials.
 https://doi.org/10.1103/PhysRevB.54.1703

 BYRD, RH; LU, PH; NOCEDAL, J; ZHU, CY. 
 SIAM JOURNAL ON SCIENTIFIC COMPUTING, 16 (5), 1190-1208 (1995). 
 A LIMITED MEMORY ALGORITHM FOR BOUND CONSTRAINED OPTIMIZATION.
 https://doi.org/10.1137/0916069


 -------------------------------------------------------------------------------
 -                                                                             -
 -                                T I M I N G                                  -
 -                                                                             -
 -------------------------------------------------------------------------------
 SUBROUTINE                       CALLS  ASD         SELF TIME        TOTAL TIME
                                MAXIMUM       AVERAGE  MAXIMUM  AVERAGE  MAXIMUM
 CP2K                                 1  1.0    0.164    0.190 2197.580 2197.581
 cp_cell_opt                          1  2.0    0.000    0.000 2196.627 2196.628
 geoopt_lbfgs                         1  3.0    0.000    0.001 2196.627 2196.628
 cp_eval_at                          43  5.0    0.005    0.011 2191.957 2191.957
 cp_opt_gopt_step                    39  4.0    0.002    0.011 2146.799 2146.799
 qs_forces                           42  6.0    0.006    0.006 2142.171 2142.172
 qs_energies                         43  7.0    0.002    0.003 1986.836 1986.854
 scf_post_calculation_gpw            43  8.0    0.002    0.002 1333.983 1333.984
 make_lumo_gpw                       43  9.0    0.001    0.001 1332.701 1332.702
 ot_eigensolver                      43 10.0    0.220    0.232 1332.331 1332.332
 dbcsr_multiply_generic          265248 12.9    7.715    7.850 1271.897 1285.899
 multiply_cannon                 265248 13.9   16.892   17.330  757.227  818.194
 multiply_cannon_loop            265248 14.9   46.914   49.159  684.825  754.009
 ot_mini                          18238 11.0    0.072    0.077  654.682  655.287
 qs_ot_get_derivative              9290 12.0    0.060    0.063  628.743  630.266
 scf_env_do_scf                      43  8.0    0.003    0.006  594.437  594.438
 rebuild_ks_matrix                  341 10.6    0.001    0.001  583.039  583.378
 qs_ks_build_kohn_sham_matrix       341 11.6    0.043    0.048  583.038  583.377
 scf_env_do_scf_inner_loop          299  9.0    0.005    0.017  513.731  513.896
 mp_sum_l                        796391 13.9  387.984  416.559  387.984  416.559
 qs_ks_update_qs_env                342 10.0    0.002    0.002  403.761  404.055
 qs_ot_get_derivative_taylor       6950 13.0    0.202    0.211  362.768  363.787
 mp_waitall_1                   ******* 17.1  322.059  357.986  322.059  357.986
 sum_up_and_integrate               341 12.6    0.545    0.585  299.839  300.008
 integrate_v_rspace                 341 13.6    0.009    0.011  299.294  299.460
 pw_transfer                       6527 14.3    0.392    0.426  267.012  270.628
 qs_ot_get_p                      18747 11.0    0.084    0.089  263.935  268.309
 fft_wrap_pw1pw2                   5845 15.4    0.054    0.059  263.972  267.581
 fft_wrap_pw1pw2_300               3796 16.5    0.019    0.020  238.859  243.975
 qs_vxc_create                      341 12.6    0.008    0.010  239.235  239.510
 xc_vxc_pw_create                   341 13.6   10.845   11.607  239.227  239.504
 multiply_cannon_metrocomm3     1591488 15.9    3.315    3.395  188.436  218.733
 multiply_cannon_multrec        1591488 15.9   35.408   52.420  120.808  206.734
 grid_integrate_task_list           341 14.6  190.231  201.474  190.231  201.474
 multiply_cannon_acc_sync_right 1326240 15.9  161.960  183.683  161.960  183.683
 qs_ks_update_qs_env_forces          42  7.0    0.000    0.000  179.351  179.402
 qs_ot_get_orbitals               18704 11.0    0.069    0.073  176.666  178.522
 pw_cuda_c1dr3d_3d_ps              3070 17.9    0.076    0.081  141.004  144.822
 xc_rho_set_and_dset_create         341 14.6    0.916    1.155  135.905  144.423
 multiply_cannon_metrocomm1     1591488 15.9    3.727    3.845  117.416  144.225
 qs_rho_update_rho                  342 10.1    0.001    0.002  139.659  141.290
 calculate_rho_elec                 342 11.1    0.542    0.603  139.658  141.289
 pw_cuda_r3dc1d_3d_ps              2775 16.9    0.056    0.062  122.888  128.629
 qs_ot_get_derivative_diag         2340 13.0    0.044    0.047  103.960  104.323
 qs_ot_p2m_taylor                 13547 12.0    0.152    0.158  102.119  103.612
 density_rs2pw                      342 12.1    0.018    0.020   97.508  100.131
 rs_pw_transfer                    2817 14.2    0.046    0.056   95.321   98.106
 mp_sum_d                        134194 14.2   82.304   93.627   82.304   93.627
 mp_alltoall_z22v                  5845 19.4   71.623   88.014   71.623   88.014
 make_m2s                        530496 13.9    3.413    3.499   82.445   85.853
 init_scf_loop                       43  9.0    0.001    0.001   80.499   80.501
 make_images                     530496 14.9    9.960   10.380   76.704   80.033
 potential_pw2rs                    341 14.6    0.059    0.067   78.528   78.690
 dbcsr_mm_accdrv_process        3521502 16.4   11.990   49.008   27.052   77.776
 xc_functional_eval                 341 15.6    0.004    0.005   62.495   71.022
 pbe_lda_eval                       341 16.6   62.491   71.018   62.491   71.018
 multiply_cannon_multrec_finali  265248 16.9    0.424    0.452   56.677   68.492
 dbcsr_mm_multrec_finalize       265248 17.9    0.948    1.066   56.253   68.098
 dbcsr_mm_sched_finalize         265248 18.9   53.009   66.976   55.304   67.313
 x_to_yz                           3070 18.9   13.158   13.982   50.470   60.368
 pw_cuda_sf                        3070 18.9   48.596   57.625   48.596   57.625
 pw_cuda_fg                        2775 17.9   47.887   56.767   47.887   56.767
 dbcsr_dot_sd                     56987 12.2    0.218    0.297   45.956   51.001
 mp_alltoall_d11v                141983 15.5   35.259   50.230   35.259   50.230
 yz_to_x                           2775 17.9    7.021    7.255   41.331   48.531
 pw_cuda_ffc                       3070 18.9   41.633   46.784   41.633   46.784
 rs_gather_matrices                 341 14.6    0.053    0.058   30.490   45.820
 acc_transpose_blocks           1591488 15.9    6.897    7.189   29.017   45.563
 qs_scf_new_mos                     299 10.0    0.001    0.001   44.889   45.076
 qs_scf_loop_do_ot                  299 11.0    0.001    0.002   44.887   45.075
 -------------------------------------------------------------------------------

 The number of warnings for this run is : 1
 
 -------------------------------------------------------------------------------
  **** **** ******  **  PROGRAM ENDED AT                 2022-04-06 15:23:10.608
 ***** ** ***  *** **   PROGRAM RAN ON                                  nid04249
 **    ****   ******    PROGRAM RAN BY                                  bbuenomo
 ***** **    ** ** **   PROGRAM PROCESS ID                                 20584
  **** **  *******  **  PROGRAM STOPPED IN /scratch/snx3000/bbuenomo/ta/cell-opt
                                           /hyp
