 DBCSR| CPU Multiplication driver                                            SMM
 DBCSR| Multrec recursion limit                                              512
 DBCSR| Multiplication stack size                                          30000
 DBCSR| Maximum elements for images                                    UNLIMITED
 DBCSR| Multiplicative factor virtual images                                   1
 DBCSR| Use multiplication densification                                       F
 DBCSR| Multiplication size stacks                                             3
 DBCSR| Use memory pool for CPU allocation                                     F
 DBCSR| Number of 3D layers                                               SINGLE
 DBCSR| Use MPI memory allocation                                              F
 DBCSR| Use RMA algorithm                                                      F
 DBCSR| Use Communication thread                                               T
 DBCSR| Communication thread load                                             87
 DBCSR| MPI: My node id                                                        0
 DBCSR| MPI: Number of nodes                                                  36
 DBCSR| OMP: Current number of threads                                         1
 DBCSR| OMP: Max number of threads                                             1
 DBCSR| ACC: Number of devices/node                                            1
 DBCSR| ACC: Number of priority stack-buffers                                 40
 DBCSR| ACC: Number of posterior stack-buffers                                80
 DBCSR| ACC: Number of priority streams                                        4
 DBCSR| ACC: Number of posterior streams                                       4
 DBCSR| ACC: Avoid driver after busy                                           F
 DBCSR| ACC: Process inhomogeneous stacks                                      T
 DBCSR| ACC: Min. flop for processing                                          0
 DBCSR| ACC: Min. flop for sorting                                          4000
 DBCSR| ACC: Number of binning bins                                         4096
 DBCSR| ACC: Size of binning bins                                             16
 DBCSR| Split modifier for TAS multiplication algorithm                  1.0E+00


  **** **** ******  **  PROGRAM STARTED AT               2022-04-06 12:33:12.133
 ***** ** ***  *** **   PROGRAM STARTED ON                              nid03317
 **    ****   ******    PROGRAM STARTED BY                              bbuenomo
 ***** **    ** ** **   PROGRAM PROCESS ID                                 21439
  **** **  *******  **  PROGRAM STARTED IN /scratch/snx3000/bbuenomo/ta/geo-opt/
                                           exp

 CP2K| version string:                                          CP2K version 9.1
 CP2K| source code revision number:                                  git:d8d7100
 CP2K| cp2kflags: omp libint fftw3 libxc elpa elpa_nvidia_gpu parallel mpi3 scal
 CP2K|            apack pw_cuda smm_dnn smm dbcsr_acc max_contr=4 plumed2 spglib sirius libvori libbqb grid_cuda
 CP2K| is freely available from                            https://www.cp2k.org/
 CP2K| Program compiled at                          Mon 21 Feb 14:02:30 CET 2022
 CP2K| Program compiled on                                              daint102
 CP2K| Program compiled for                                CP2K-9.1-CrayGNU-cuda
 CP2K| Data directory path    /apps/daint/UES/jenkins/7.0.UP03/21.09/daint-gpu/s
 CP2K| Input file name                                         UTSA_80_geopt.inp

 GLOBAL| Force Environment number                                              1
 GLOBAL| Basis set file name                                        BASIS_MOLOPT
 GLOBAL| Potential file name                                      GTH_POTENTIALS
 GLOBAL| MM Potential file name                                     MM_POTENTIAL
 GLOBAL| Coordinate file name                                UTSA_80_cleaned.xyz
 GLOBAL| Method name                                                        CP2K
 GLOBAL| Project name                                                   UTSA80go
 GLOBAL| Run type                                                        GEO_OPT
 GLOBAL| FFT library                                                       FFTW3
 GLOBAL| Diagonalization library                                            ELPA
 GLOBAL| Minimum number of eigenvectors for ELPA usage                        16
 GLOBAL| Orthonormality check for eigenvectors                          DISABLED
 GLOBAL| Matrix multiplication library                                 ScaLAPACK
 GLOBAL| All-to-all communication in single precision                          F
 GLOBAL| FFTs using library dependent lengths                                  F
 GLOBAL| Grid backend                                                       AUTO
 GLOBAL| Global print level                                               MEDIUM
 GLOBAL| MPI I/O enabled                                                       T
 GLOBAL| Total number of message passing processes                            36
 GLOBAL| Number of threads for this process                                    1
 GLOBAL| This output is from process                                           0
 GLOBAL| Stack size for threads created by OpenMP (OMP_STACKSIZE)        default
 GLOBAL| CPU model name                Intel(R) Xeon(R) CPU E5-2690 v3 @ 2.60GHz
 GLOBAL| CPUID                                                              1002

 MEMORY| system memory details [Kb]
 MEMORY|                        rank 0           min           max       average
 MEMORY| MemTotal             65740148      65740148      65740148      65740148
 MEMORY| MemFree              56557788      56557788      56689200      56640436
 MEMORY| Buffers                  8088          5940          8088          6668
 MEMORY| Cached                3257444       3252672       3260676       3256930
 MEMORY| Slab                   266912        264272        266912        265258
 MEMORY| SReclaimable            55728         53324         55728         54137
 MEMORY| MemLikelyFree        59879048      59879048      60001172      59958172


 *** Fundamental physical constants (SI units) ***

 *** Literature: B. J. Mohr and B. N. Taylor,
 ***             CODATA recommended values of the fundamental physical
 ***             constants: 2006, Web Version 5.1
 ***             http://physics.nist.gov/constants

 Speed of light in vacuum [m/s]                             2.99792458000000E+08
 Magnetic constant or permeability of vacuum [N/A**2]       1.25663706143592E-06
 Electric constant or permittivity of vacuum [F/m]          8.85418781762039E-12
 Planck constant (h) [J*s]                                  6.62606896000000E-34
 Planck constant (h-bar) [J*s]                              1.05457162825177E-34
 Elementary charge [C]                                      1.60217648700000E-19
 Electron mass [kg]                                         9.10938215000000E-31
 Electron g factor [ ]                                     -2.00231930436220E+00
 Proton mass [kg]                                           1.67262163700000E-27
 Fine-structure constant                                    7.29735253760000E-03
 Rydberg constant [1/m]                                     1.09737315685270E+07
 Avogadro constant [1/mol]                                  6.02214179000000E+23
 Boltzmann constant [J/K]                                   1.38065040000000E-23
 Atomic mass unit [kg]                                      1.66053878200000E-27
 Bohr radius [m]                                            5.29177208590000E-11

 *** Conversion factors ***

 [u] -> [a.u.]                                              1.82288848426455E+03
 [Angstrom] -> [Bohr] = [a.u.]                              1.88972613288564E+00
 [a.u.] = [Bohr] -> [Angstrom]                              5.29177208590000E-01
 [a.u.] -> [s]                                              2.41888432650478E-17
 [a.u.] -> [fs]                                             2.41888432650478E-02
 [a.u.] -> [J]                                              4.35974393937059E-18
 [a.u.] -> [N]                                              8.23872205491840E-08
 [a.u.] -> [K]                                              3.15774647902944E+05
 [a.u.] -> [kJ/mol]                                         2.62549961709828E+03
 [a.u.] -> [kcal/mol]                                       6.27509468713739E+02
 [a.u.] -> [Pa]                                             2.94210107994716E+13
 [a.u.] -> [bar]                                            2.94210107994716E+08
 [a.u.] -> [atm]                                            2.90362800883016E+08
 [a.u.] -> [eV]                                             2.72113838565563E+01
 [a.u.] -> [Hz]                                             6.57968392072181E+15
 [a.u.] -> [1/cm] (wave numbers)                            2.19474631370540E+05
 [a.u./Bohr**2] -> [1/cm]                                   5.14048714338585E+03
 

 CELL_TOP| Volume [angstrom^3]:                                      3076.662046
 CELL_TOP| Vector a [angstrom    15.908     0.000     0.000   |a| =    15.908000
 CELL_TOP| Vector b [angstrom     0.864    17.727     0.000   |b| =    17.748000
 CELL_TOP| Vector c [angstrom     3.542     1.755    10.910   |c| =    11.604000
 CELL_TOP| Angle (b,c), alpha [degree]:                                80.450000
 CELL_TOP| Angle (a,c), beta  [degree]:                                72.230000
 CELL_TOP| Angle (a,b), gamma [degree]:                                87.210000
 CELL_TOP| Numerically orthorhombic:                                          NO

 CELL_UC| Volume [angstrom^3]:                                        769.165512
 CELL_UC| Vector a [angstrom]     7.954     0.000     0.000   |a| =     7.954000
 CELL_UC| Vector b [angstrom]     0.432     8.863     0.000   |b| =     8.874000
 CELL_UC| Vector c [angstrom]     3.542     1.755    10.910   |c| =    11.604000
 CELL_UC| Angle (b,c), alpha [degree]:                                 80.450000
 CELL_UC| Angle (a,c), beta  [degree]:                                 72.230000
 CELL_UC| Angle (a,b), gamma [degree]:                                 87.210000
 CELL_UC| Numerically orthorhombic:                                           NO

 GENERATE|  Preliminary Number of Bonds generated:                             0
 GENERATE|  Achieved consistency in connectivity generation.

 CELL| Volume [angstrom^3]:                                          3076.662046
 CELL| Vector a [angstrom]:      15.908     0.000     0.000   |a| =    15.908000
 CELL| Vector b [angstrom]:       0.864    17.727     0.000   |b| =    17.748000
 CELL| Vector c [angstrom]:       3.542     1.755    10.910   |c| =    11.604000
 CELL| Angle (b,c), alpha [degree]:                                    80.450000
 CELL| Angle (a,c), beta  [degree]:                                    72.230000
 CELL| Angle (a,b), gamma [degree]:                                    87.210000
 CELL| Numerically orthorhombic:                                              NO

 CELL_REF| Volume [angstrom^3]:                                      3076.662046
 CELL_REF| Vector a [angstrom    15.908     0.000     0.000   |a| =    15.908000
 CELL_REF| Vector b [angstrom     0.864    17.727     0.000   |b| =    17.748000
 CELL_REF| Vector c [angstrom     3.542     1.755    10.910   |c| =    11.604000
 CELL_REF| Angle (b,c), alpha [degree]:                                80.450000
 CELL_REF| Angle (a,c), beta  [degree]:                                72.230000
 CELL_REF| Angle (a,b), gamma [degree]:                                87.210000
 CELL_REF| Numerically orthorhombic:                                          NO

 *******************************************************************************
 *******************************************************************************
 **                                                                           **
 **     #####                         ##              ##                      **
 **    ##   ##            ##          ##              ##                      **
 **   ##     ##                       ##            ######                    **
 **   ##     ##  ##   ##  ##   #####  ##  ##   ####   ##    #####    #####    **
 **   ##     ##  ##   ##  ##  ##      ## ##   ##      ##   ##   ##  ##   ##   **
 **   ##  ## ##  ##   ##  ##  ##      ####     ###    ##   ######   ######    **
 **    ##  ###   ##   ##  ##  ##      ## ##      ##   ##   ##       ##        **
 **     #######   #####   ##   #####  ##  ##  ####    ##    #####   ##        **
 **           ##                                                    ##        **
 **                                                                           **
 **                                                ... make the atoms dance   **
 **                                                                           **
 **            Copyright (C) by CP2K developers group (2000-2021)             **
 **                      J. Chem. Phys. 152, 194103 (2020)                    **
 **                                                                           **
 *******************************************************************************

 DFT| Spin restricted Kohn-Sham (RKS) calculation                            RKS
 DFT| Multiplicity                                                             1
 DFT| Number of spin states                                                    1
 DFT| Charge                                                                   0
 DFT| Self-interaction correction (SIC)                                       NO
 DFT| Cutoffs: density                                              1.000000E-10
 DFT|          gradient                                             1.000000E-10
 DFT|          tau                                                  1.000000E-10
 DFT|          cutoff_smoothing_range                               0.000000E+00
 DFT| XC density smoothing                                                  NONE
 DFT| XC derivatives                                                          PW
 FUNCTIONAL| ROUTINE=NEW
 FUNCTIONAL| PBE:
 FUNCTIONAL| J.P.Perdew, K.Burke, M.Ernzerhof, Phys. Rev. Letter, vol. 77, n 18,
 FUNCTIONAL|  pp. 3865-3868, (1996){spin unpolarized}                           
 vdW POTENTIAL|                                                   Pair Potential
 vdW POTENTIAL|          DFT-D3 (Version 3.1)
 vdW POTENTIAL|          Potential Form: S. Grimme et al, JCP 132: 154104 (2010)
 vdW POTENTIAL|          BJ Damping: S. Grimme et al, JCC 32: 1456 (2011)
 vdW POTENTIAL|          Cutoff Radius [Bohr]:                             18.90
 vdW POTENTIAL|          s6 Scaling Factor:                               1.0000
 vdW POTENTIAL|          a1 Damping Factor:                               0.4289
 vdW POTENTIAL|          s8 Scaling Factor:                               0.7875
 vdW POTENTIAL|          a2 Damping Factor:                               4.4407
 vdW POTENTIAL|          Cutoff for CN calculation:                   0.1000E-05

 QS| Method:                                                                 GPW
 QS| Density plane wave grid type                        NON-SPHERICAL FULLSPACE
 QS| Number of grid levels:                                                    4
 QS| Density cutoff [a.u.]:                                                300.0
 QS| Multi grid cutoff [a.u.]: 1) grid level                               300.0
 QS|                           2) grid level                               100.0
 QS|                           3) grid level                                33.3
 QS|                           4) grid level                                11.1
 QS| Grid level progression factor:                                          3.0
 QS| Relative density cutoff [a.u.]:                                        30.0
 QS| Interaction thresholds: eps_pgf_orb:                                1.0E-05
 QS|                         eps_filter_matrix:                          0.0E+00
 QS|                         eps_core_charge:                            1.0E-12
 QS|                         eps_rho_gspace:                             1.0E-10
 QS|                         eps_rho_rspace:                             1.0E-10
 QS|                         eps_gvg_rspace:                             1.0E-05
 QS|                         eps_ppl:                                    1.0E-02
 QS|                         eps_ppnl:                                   1.0E-07


 ATOMIC KIND INFORMATION

  1. Atomic kind: Zn                                    Number of atoms:       8

     Orbital Basis Set                                        TZVP-MOLOPT-SR-GTH

       Number of orbital shell sets:                                           1
       Number of orbital shells:                                              10
       Number of primitive Cartesian functions:                                6
       Number of Cartesian basis functions:                                   40
       Number of spherical basis functions:                                   34
       Norm type:                                                              2

       Normalised Cartesian orbitals:

                        Set   Shell   Orbital            Exponent    Coefficient

                          1       1    2s                6.400813       0.067909
                                                         3.167793      -0.175995
                                                         1.341704       0.252541
                                                         0.545418       0.117811
                                                         0.222222      -0.158670
                                                         0.079830      -0.065532

                          1       2    3s                6.400813      -0.203553
                                                         3.167793       0.423977
                                                         1.341704      -0.544832
                                                         0.545418       0.061239
                                                         0.222222       0.318181
                                                         0.079830      -0.195033

                          1       3    4s                6.400813      -0.014853
                                                         3.167793       0.049318
                                                         1.341704      -0.241840
                                                         0.545418       0.452595
                                                         0.222222       0.015209
                                                         0.079830       0.023555

                          1       4    3px               6.400813       0.080507
                                                         3.167793      -0.109840
                                                         1.341704       0.361646
                                                         0.545418      -0.097117
                                                         0.222222      -0.131461
                                                         0.079830      -0.025372
                          1       4    3py               6.400813       0.080507
                                                         3.167793      -0.109840
                                                         1.341704       0.361646
                                                         0.545418      -0.097117
                                                         0.222222      -0.131461
                                                         0.079830      -0.025372
                          1       4    3pz               6.400813       0.080507
                                                         3.167793      -0.109840
                                                         1.341704       0.361646
                                                         0.545418      -0.097117
                                                         0.222222      -0.131461
                                                         0.079830      -0.025372

                          1       5    4px               6.400813      -0.170347
                                                         3.167793       0.232027
                                                         1.341704      -0.941864
                                                         0.545418       0.386804
                                                         0.222222       0.139326
                                                         0.079830      -0.079677
                          1       5    4py               6.400813      -0.170347
                                                         3.167793       0.232027
                                                         1.341704      -0.941864
                                                         0.545418       0.386804
                                                         0.222222       0.139326
                                                         0.079830      -0.079677
                          1       5    4pz               6.400813      -0.170347
                                                         3.167793       0.232027
                                                         1.341704      -0.941864
                                                         0.545418       0.386804
                                                         0.222222       0.139326
                                                         0.079830      -0.079677

                          1       6    5px               6.400813      -0.550416
                                                         3.167793       0.809698
                                                         1.341704      -1.826769
                                                         0.545418       1.530739
                                                         0.222222      -0.281145
                                                         0.079830       0.041784
                          1       6    5py               6.400813      -0.550416
                                                         3.167793       0.809698
                                                         1.341704      -1.826769
                                                         0.545418       1.530739
                                                         0.222222      -0.281145
                                                         0.079830       0.041784
                          1       6    5pz               6.400813      -0.550416
                                                         3.167793       0.809698
                                                         1.341704      -1.826769
                                                         0.545418       1.530739
                                                         0.222222      -0.281145
                                                         0.079830       0.041784

                          1       7    4dx2              6.400813      12.519980
                                                         3.167793       4.593751
                                                         1.341704       0.972279
                                                         0.545418       0.110859
                                                         0.222222       0.003629
                                                         0.079830      -0.000892
                          1       7    4dxy              6.400813      21.685241
                                                         3.167793       7.956610
                                                         1.341704       1.684036
                                                         0.545418       0.192014
                                                         0.222222       0.006285
                                                         0.079830      -0.001544
                          1       7    4dxz              6.400813      21.685241
                                                         3.167793       7.956610
                                                         1.341704       1.684036
                                                         0.545418       0.192014
                                                         0.222222       0.006285
                                                         0.079830      -0.001544
                          1       7    4dy2              6.400813      12.519980
                                                         3.167793       4.593751
                                                         1.341704       0.972279
                                                         0.545418       0.110859
                                                         0.222222       0.003629
                                                         0.079830      -0.000892
                          1       7    4dyz              6.400813      21.685241
                                                         3.167793       7.956610
                                                         1.341704       1.684036
                                                         0.545418       0.192014
                                                         0.222222       0.006285
                                                         0.079830      -0.001544
                          1       7    4dz2              6.400813      12.519980
                                                         3.167793       4.593751
                                                         1.341704       0.972279
                                                         0.545418       0.110859
                                                         0.222222       0.003629
                                                         0.079830      -0.000892

                          1       8    5dx2              6.400813      -0.022108
                                                         3.167793       0.114332
                                                         1.341704      -0.252756
                                                         0.545418       0.128758
                                                         0.222222       0.046373
                                                         0.079830       0.011718
                          1       8    5dxy              6.400813      -0.038292
                                                         3.167793       0.198029
                                                         1.341704      -0.437786
                                                         0.545418       0.223016
                                                         0.222222       0.080320
                                                         0.079830       0.020296
                          1       8    5dxz              6.400813      -0.038292
                                                         3.167793       0.198029
                                                         1.341704      -0.437786
                                                         0.545418       0.223016
                                                         0.222222       0.080320
                                                         0.079830       0.020296
                          1       8    5dy2              6.400813      -0.022108
                                                         3.167793       0.114332
                                                         1.341704      -0.252756
                                                         0.545418       0.128758
                                                         0.222222       0.046373
                                                         0.079830       0.011718
                          1       8    5dyz              6.400813      -0.038292
                                                         3.167793       0.198029
                                                         1.341704      -0.437786
                                                         0.545418       0.223016
                                                         0.222222       0.080320
                                                         0.079830       0.020296
                          1       8    5dz2              6.400813      -0.022108
                                                         3.167793       0.114332
                                                         1.341704      -0.252756
                                                         0.545418       0.128758
                                                         0.222222       0.046373
                                                         0.079830       0.011718

                          1       9    6dx2              6.400813       1.149409
                                                         3.167793       1.312290
                                                         1.341704       0.808754
                                                         0.545418      -0.242938
                                                         0.222222      -0.115167
                                                         0.079830       0.016731
                          1       9    6dxy              6.400813       1.990834
                                                         3.167793       2.272953
                                                         1.341704       1.400804
                                                         0.545418      -0.420781
                                                         0.222222      -0.199474
                                                         0.079830       0.028978
                          1       9    6dxz              6.400813       1.990834
                                                         3.167793       2.272953
                                                         1.341704       1.400804
                                                         0.545418      -0.420781
                                                         0.222222      -0.199474
                                                         0.079830       0.028978
                          1       9    6dy2              6.400813       1.149409
                                                         3.167793       1.312290
                                                         1.341704       0.808754
                                                         0.545418      -0.242938
                                                         0.222222      -0.115167
                                                         0.079830       0.016731
                          1       9    6dyz              6.400813       1.990834
                                                         3.167793       2.272953
                                                         1.341704       1.400804
                                                         0.545418      -0.420781
                                                         0.222222      -0.199474
                                                         0.079830       0.028978
                          1       9    6dz2              6.400813       1.149409
                                                         3.167793       1.312290
                                                         1.341704       0.808754
                                                         0.545418      -0.242938
                                                         0.222222      -0.115167
                                                         0.079830       0.016731

                          1      10    5fx3              6.400813      -0.232709
                                                         3.167793       0.232007
                                                         1.341704      -0.021407
                                                         0.545418       0.123407
                                                         0.222222       0.025005
                                                         0.079830       0.002002
                          1      10    5fx2y             6.400813      -0.520353
                                                         3.167793       0.518783
                                                         1.341704      -0.047867
                                                         0.545418       0.275947
                                                         0.222222       0.055913
                                                         0.079830       0.004477
                          1      10    5fx2z             6.400813      -0.520353
                                                         3.167793       0.518783
                                                         1.341704      -0.047867
                                                         0.545418       0.275947
                                                         0.222222       0.055913
                                                         0.079830       0.004477
                          1      10    5fxy2             6.400813      -0.520353
                                                         3.167793       0.518783
                                                         1.341704      -0.047867
                                                         0.545418       0.275947
                                                         0.222222       0.055913
                                                         0.079830       0.004477
                          1      10    5fxyz             6.400813      -0.901278
                                                         3.167793       0.898559
                                                         1.341704      -0.082908
                                                         0.545418       0.477954
                                                         0.222222       0.096845
                                                         0.079830       0.007755
                          1      10    5fxz2             6.400813      -0.520353
                                                         3.167793       0.518783
                                                         1.341704      -0.047867
                                                         0.545418       0.275947
                                                         0.222222       0.055913
                                                         0.079830       0.004477
                          1      10    5fy3              6.400813      -0.232709
                                                         3.167793       0.232007
                                                         1.341704      -0.021407
                                                         0.545418       0.123407
                                                         0.222222       0.025005
                                                         0.079830       0.002002
                          1      10    5fy2z             6.400813      -0.520353
                                                         3.167793       0.518783
                                                         1.341704      -0.047867
                                                         0.545418       0.275947
                                                         0.222222       0.055913
                                                         0.079830       0.004477
                          1      10    5fyz2             6.400813      -0.520353
                                                         3.167793       0.518783
                                                         1.341704      -0.047867
                                                         0.545418       0.275947
                                                         0.222222       0.055913
                                                         0.079830       0.004477
                          1      10    5fz3              6.400813      -0.232709
                                                         3.167793       0.232007
                                                         1.341704      -0.021407
                                                         0.545418       0.123407
                                                         0.222222       0.025005
                                                         0.079830       0.002002

     Auxiliary Fit Basis Set                                              cFIT12

       Number of orbital shell sets:                                           7
       Number of orbital shells:                                               7
       Number of primitive Cartesian functions:                               12
       Number of Cartesian basis functions:                                   30
       Number of spherical basis functions:                                   25
       Norm type:                                                              2

       Normalised Cartesian orbitals:

                        Set   Shell   Orbital            Exponent    Coefficient

                          1       1    1s                0.100023       0.126760

                          2       1    1s                0.295597      -0.471615
                                                         1.036239       1.245954
                                                         1.794228      -0.452880

                          3       1    1px               0.100031       0.080187
                          3       1    1py               0.100031       0.080187
                          3       1    1pz               0.100031       0.080187

                          4       1    1px               0.281321       0.328064
                                                         1.141783      -0.434696
                          4       1    1py               0.281321       0.328064
                                                         1.141783      -0.434696
                          4       1    1pz               0.281321       0.328064
                                                         1.141783      -0.434696

                          5       1    1dx2              0.207649       0.105133
                          5       1    1dxy              0.207649       0.182095
                          5       1    1dxz              0.207649       0.182095
                          5       1    1dy2              0.207649       0.105133
                          5       1    1dyz              0.207649       0.182095
                          5       1    1dz2              0.207649       0.105133

                          6       1    1dx2              0.659161       0.259772
                                                         2.034596       2.637060
                                                         5.612096      14.633111
                          6       1    1dxy              0.659161       0.449938
                                                         2.034596       4.567521
                                                         5.612096      25.345291
                          6       1    1dxz              0.659161       0.449938
                                                         2.034596       4.567521
                                                         5.612096      25.345291
                          6       1    1dy2              0.659161       0.259772
                                                         2.034596       2.637060
                                                         5.612096      14.633111
                          6       1    1dyz              0.659161       0.449938
                                                         2.034596       4.567521
                                                         5.612096      25.345291
                          6       1    1dz2              0.659161       0.259772
                                                         2.034596       2.637060
                                                         5.612096      14.633111

                          7       1    1fx3              0.363577       0.151111
                          7       1    1fx2y             0.363577       0.337894
                          7       1    1fx2z             0.363577       0.337894
                          7       1    1fxy2             0.363577       0.337894
                          7       1    1fxyz             0.363577       0.585250
                          7       1    1fxz2             0.363577       0.337894
                          7       1    1fy3              0.363577       0.151111
                          7       1    1fy2z             0.363577       0.337894
                          7       1    1fyz2             0.363577       0.337894
                          7       1    1fz3              0.363577       0.151111

       Atomic covalent radius [Angstrom]:                                  1.250

       Atomic van der Waals radius [Angstrom]:                             1.390

     GTH Potential information for                                   GTH-PBE-q12

       Description:                       Goedecker-Teter-Hutter pseudopotential
                                           Goedecker et al., PRB 54, 1703 (1996)
                                          Hartwigsen et al., PRB 58, 3641 (1998)
                                                      Krack, TCA 114, 145 (2005)

       Gaussian exponent of the core charge distribution:               1.922338
       Electronic configuration (s p d ...):                           2   0  10

       Parameters of the local part of the GTH pseudopotential:

                          rloc        C1          C2          C3          C4
                        0.510000

       Parameters of the non-local part of the GTH pseudopotential:

                   l      r(l)      h(i,j,l)

                   0    0.400316   11.530041   -8.791898    3.145086
                                   -8.791898   16.465775   -8.120578
                                    3.145086   -8.120578    6.445509
                   1    0.543182    2.597195   -0.594263
                                   -0.594263    0.703141
                   2    0.250959  -14.466958

  2. Atomic kind: O                                     Number of atoms:      32

     Orbital Basis Set                                           DZVP-MOLOPT-GTH

       Number of orbital shell sets:                                           1
       Number of orbital shells:                                               5
       Number of primitive Cartesian functions:                                7
       Number of Cartesian basis functions:                                   14
       Number of spherical basis functions:                                   13
       Norm type:                                                              2

       Normalised Cartesian orbitals:

                        Set   Shell   Orbital            Exponent    Coefficient

                          1       1    2s               12.015955      -0.284499
                                                         5.108150      -0.322498
                                                         2.048398       0.148191
                                                         0.832382       0.295475
                                                         0.352316       0.150829
                                                         0.142977       0.015788
                                                         0.046761      -0.000019

                          1       2    3s               12.015955       0.725622
                                                         5.108150       0.644384
                                                         2.048398      -0.157350
                                                         0.832382      -0.853528
                                                         0.352316       0.146068
                                                         0.142977       0.153978
                                                         0.046761       0.000658

                          1       3    3px              12.015955       1.192141
                                                         5.108150       1.354170
                                                         2.048398       0.897267
                                                         0.832382       0.408839
                                                         0.352316       0.116648
                                                         0.142977       0.022184
                                                         0.046761       0.000308
                          1       3    3py              12.015955       1.192141
                                                         5.108150       1.354170
                                                         2.048398       0.897267
                                                         0.832382       0.408839
                                                         0.352316       0.116648
                                                         0.142977       0.022184
                                                         0.046761       0.000308
                          1       3    3pz              12.015955       1.192141
                                                         5.108150       1.354170
                                                         2.048398       0.897267
                                                         0.832382       0.408839
                                                         0.352316       0.116648
                                                         0.142977       0.022184
                                                         0.046761       0.000308

                          1       4    4px              12.015955      -1.062381
                                                         5.108150      -1.285791
                                                         2.048398      -0.727000
                                                         0.832382      -0.522764
                                                         0.352316       0.182681
                                                         0.142977       0.087560
                                                         0.046761       0.000981
                          1       4    4py              12.015955      -1.062381
                                                         5.108150      -1.285791
                                                         2.048398      -0.727000
                                                         0.832382      -0.522764
                                                         0.352316       0.182681
                                                         0.142977       0.087560
                                                         0.046761       0.000981
                          1       4    4pz              12.015955      -1.062381
                                                         5.108150      -1.285791
                                                         2.048398      -0.727000
                                                         0.832382      -0.522764
                                                         0.352316       0.182681
                                                         0.142977       0.087560
                                                         0.046761       0.000981

                          1       5    4dx2             12.015955       1.125955
                                                         5.108150       1.160468
                                                         2.048398       0.999335
                                                         0.832382       0.756334
                                                         0.352316       0.048604
                                                         0.142977       0.010378
                                                         0.046761      -0.000027
                          1       5    4dxy             12.015955       1.950212
                                                         5.108150       2.009990
                                                         2.048398       1.730899
                                                         0.832382       1.310009
                                                         0.352316       0.084185
                                                         0.142977       0.017974
                                                         0.046761      -0.000046
                          1       5    4dxz             12.015955       1.950212
                                                         5.108150       2.009990
                                                         2.048398       1.730899
                                                         0.832382       1.310009
                                                         0.352316       0.084185
                                                         0.142977       0.017974
                                                         0.046761      -0.000046
                          1       5    4dy2             12.015955       1.125955
                                                         5.108150       1.160468
                                                         2.048398       0.999335
                                                         0.832382       0.756334
                                                         0.352316       0.048604
                                                         0.142977       0.010378
                                                         0.046761      -0.000027
                          1       5    4dyz             12.015955       1.950212
                                                         5.108150       2.009990
                                                         2.048398       1.730899
                                                         0.832382       1.310009
                                                         0.352316       0.084185
                                                         0.142977       0.017974
                                                         0.046761      -0.000046
                          1       5    4dz2             12.015955       1.125955
                                                         5.108150       1.160468
                                                         2.048398       0.999335
                                                         0.832382       0.756334
                                                         0.352316       0.048604
                                                         0.142977       0.010378
                                                         0.046761      -0.000027

     Auxiliary Fit Basis Set                                               pFIT3

       Number of orbital shell sets:                                           7
       Number of orbital shells:                                               7
       Number of primitive Cartesian functions:                                7
       Number of Cartesian basis functions:                                   18
       Number of spherical basis functions:                                   17
       Norm type:                                                              2

       Normalised Cartesian orbitals:

                        Set   Shell   Orbital            Exponent    Coefficient

                          1       1    1s                0.270610       0.267404

                          2       1    1s                0.884930       0.650267

                          3       1    1s                8.504090       3.549204

                          4       1    1px               0.310400       0.330250
                          4       1    1py               0.310400       0.330250
                          4       1    1pz               0.310400       0.330250

                          5       1    1px               1.382560       2.136954
                          5       1    1py               1.382560       2.136954
                          5       1    1pz               1.382560       2.136954

                          6       1    1px               6.082640      13.616178
                          6       1    1py               6.082640      13.616178
                          6       1    1pz               6.082640      13.616178

                          7       1    1dx2              1.000000       1.645923
                          7       1    1dxy              1.000000       2.850822
                          7       1    1dxz              1.000000       2.850822
                          7       1    1dy2              1.000000       1.645923
                          7       1    1dyz              1.000000       2.850822
                          7       1    1dz2              1.000000       1.645923

       Atomic covalent radius [Angstrom]:                                  0.730

       Atomic van der Waals radius [Angstrom]:                             1.520

     GTH Potential information for                                    GTH-PBE-q6

       Description:                       Goedecker-Teter-Hutter pseudopotential
                                           Goedecker et al., PRB 54, 1703 (1996)
                                          Hartwigsen et al., PRB 58, 3641 (1998)
                                                      Krack, TCA 114, 145 (2005)

       Gaussian exponent of the core charge distribution:               8.360253
       Electronic configuration (s p d ...):                               2   4

       Parameters of the local part of the GTH pseudopotential:

                          rloc        C1          C2          C3          C4
                        0.244554  -16.667215    2.487311

       Parameters of the non-local part of the GTH pseudopotential:

                   l      r(l)      h(i,j,l)

                   0    0.220956   18.337458
                   1    0.211332

  3. Atomic kind: N                                     Number of atoms:      32

     Orbital Basis Set                                     DZVP-MOLOPT-SR-GTH-q5

       Number of orbital shell sets:                                           1
       Number of orbital shells:                                               5
       Number of primitive Cartesian functions:                                5
       Number of Cartesian basis functions:                                   14
       Number of spherical basis functions:                                   13
       Norm type:                                                              2

       Normalised Cartesian orbitals:

                        Set   Shell   Orbital            Exponent    Coefficient

                          1       1    2s                7.341988       0.360561
                                                         2.542637       0.139177
                                                         0.888575      -0.289383
                                                         0.333802      -0.182244
                                                         0.112012      -0.019197

                          1       2    3s                7.341988       0.282000
                                                         2.542637       0.177875
                                                         0.888575      -0.278381
                                                         0.333802       0.008577
                                                         0.112012       0.154176

                          1       3    3px               7.341988      -1.188719
                                                         2.542637      -0.973969
                                                         0.888575      -0.501079
                                                         0.333802      -0.144894
                                                         0.112012      -0.013986
                          1       3    3py               7.341988      -1.188719
                                                         2.542637      -0.973969
                                                         0.888575      -0.501079
                                                         0.333802      -0.144894
                                                         0.112012      -0.013986
                          1       3    3pz               7.341988      -1.188719
                                                         2.542637      -0.973969
                                                         0.888575      -0.501079
                                                         0.333802      -0.144894
                                                         0.112012      -0.013986

                          1       4    4px               7.341988      -0.094798
                                                         2.542637       0.050069
                                                         0.888575      -0.114797
                                                         0.333802       0.144793
                                                         0.112012       0.066710
                          1       4    4py               7.341988      -0.094798
                                                         2.542637       0.050069
                                                         0.888575      -0.114797
                                                         0.333802       0.144793
                                                         0.112012       0.066710
                          1       4    4pz               7.341988      -0.094798
                                                         2.542637       0.050069
                                                         0.888575      -0.114797
                                                         0.333802       0.144793
                                                         0.112012       0.066710

                          1       5    4dx2              7.341988       1.354688
                                                         2.542637       0.690378
                                                         0.888575       0.855359
                                                         0.333802       0.091746
                                                         0.112012       0.001253
                          1       5    4dxy              7.341988       2.346389
                                                         2.542637       1.195770
                                                         0.888575       1.481524
                                                         0.333802       0.158910
                                                         0.112012       0.002169
                          1       5    4dxz              7.341988       2.346389
                                                         2.542637       1.195770
                                                         0.888575       1.481524
                                                         0.333802       0.158910
                                                         0.112012       0.002169
                          1       5    4dy2              7.341988       1.354688
                                                         2.542637       0.690378
                                                         0.888575       0.855359
                                                         0.333802       0.091746
                                                         0.112012       0.001253
                          1       5    4dyz              7.341988       2.346389
                                                         2.542637       1.195770
                                                         0.888575       1.481524
                                                         0.333802       0.158910
                                                         0.112012       0.002169
                          1       5    4dz2              7.341988       1.354688
                                                         2.542637       0.690378
                                                         0.888575       0.855359
                                                         0.333802       0.091746
                                                         0.112012       0.001253

     Auxiliary Fit Basis Set                                               pFIT3

       Number of orbital shell sets:                                           7
       Number of orbital shells:                                               7
       Number of primitive Cartesian functions:                                7
       Number of Cartesian basis functions:                                   18
       Number of spherical basis functions:                                   17
       Norm type:                                                              2

       Normalised Cartesian orbitals:

                        Set   Shell   Orbital            Exponent    Coefficient

                          1       1    1s                0.202700       0.215303

                          2       1    1s                0.651190       0.516643

                          3       1    1s                6.295090       2.832445

                          4       1    1px               0.225130       0.221046
                          4       1    1py               0.225130       0.221046
                          4       1    1pz               0.225130       0.221046

                          5       1    1px               0.997700       1.421314
                          5       1    1py               0.997700       1.421314
                          5       1    1pz               0.997700       1.421314

                          6       1    1px               4.447200       9.205522
                          6       1    1py               4.447200       9.205522
                          6       1    1pz               4.447200       9.205522

                          7       1    1dx2              0.900000       1.368781
                          7       1    1dxy              0.900000       2.370798
                          7       1    1dxz              0.900000       2.370798
                          7       1    1dy2              0.900000       1.368781
                          7       1    1dyz              0.900000       2.370798
                          7       1    1dz2              0.900000       1.368781

       Atomic covalent radius [Angstrom]:                                  0.750

       Atomic van der Waals radius [Angstrom]:                             1.550

     GTH Potential information for                                    GTH-PBE-q5

       Description:                       Goedecker-Teter-Hutter pseudopotential
                                           Goedecker et al., PRB 54, 1703 (1996)
                                          Hartwigsen et al., PRB 58, 3641 (1998)
                                                      Krack, TCA 114, 145 (2005)

       Gaussian exponent of the core charge distribution:               6.208322
       Electronic configuration (s p d ...):                               2   3

       Parameters of the local part of the GTH pseudopotential:

                          rloc        C1          C2          C3          C4
                        0.283791  -12.415226    1.868096

       Parameters of the non-local part of the GTH pseudopotential:

                   l      r(l)      h(i,j,l)

                   0    0.255405   13.630263
                   1    0.245495

  4. Atomic kind: H                                     Number of atoms:     112

     Orbital Basis Set                                     DZVP-MOLOPT-SR-GTH-q1

       Number of orbital shell sets:                                           1
       Number of orbital shells:                                               3
       Number of primitive Cartesian functions:                                5
       Number of Cartesian basis functions:                                    5
       Number of spherical basis functions:                                    5
       Norm type:                                                              2

       Normalised Cartesian orbitals:

                        Set   Shell   Orbital            Exponent    Coefficient

                          1       1    2s               10.068468      -0.133023
                                                         2.680223      -0.177618
                                                         0.791502      -0.258419
                                                         0.239116      -0.107525
                                                         0.082193      -0.014019

                          1       2    3s               10.068468       0.344673
                                                         2.680223       1.819821
                                                         0.791502      -0.999069
                                                         0.239116       0.017430
                                                         0.082193       0.082660

                          1       3    3px              10.068468       0.155326
                                                         2.680223       0.367157
                                                         0.791502       0.311480
                                                         0.239116       0.080105
                                                         0.082193       0.033440
                          1       3    3py              10.068468       0.155326
                                                         2.680223       0.367157
                                                         0.791502       0.311480
                                                         0.239116       0.080105
                                                         0.082193       0.033440
                          1       3    3pz              10.068468       0.155326
                                                         2.680223       0.367157
                                                         0.791502       0.311480
                                                         0.239116       0.080105
                                                         0.082193       0.033440

     Auxiliary Fit Basis Set                                               pFIT3

       Number of orbital shell sets:                                           4
       Number of orbital shells:                                               4
       Number of primitive Cartesian functions:                                4
       Number of Cartesian basis functions:                                    6
       Number of spherical basis functions:                                    6
       Norm type:                                                              2

       Normalised Cartesian orbitals:

                        Set   Shell   Orbital            Exponent    Coefficient

                          1       1    1s                0.113290       0.139173

                          2       1    1s                0.551250       0.455955

                          3       1    1s                3.585030       1.856862

                          4       1    1px               1.000000       1.425411
                          4       1    1py               1.000000       1.425411
                          4       1    1pz               1.000000       1.425411

       Atomic covalent radius [Angstrom]:                                  0.320

       Atomic van der Waals radius [Angstrom]:                             1.090

     GTH Potential information for                                    GTH-PBE-q1

       Description:                       Goedecker-Teter-Hutter pseudopotential
                                           Goedecker et al., PRB 54, 1703 (1996)
                                          Hartwigsen et al., PRB 58, 3641 (1998)
                                                      Krack, TCA 114, 145 (2005)

       Gaussian exponent of the core charge distribution:              12.500000
       Electronic configuration (s p d ...):                                   1

       Parameters of the local part of the GTH pseudopotential:

                          rloc        C1          C2          C3          C4
                        0.200000   -4.178900    0.724463

  5. Atomic kind: C                                     Number of atoms:     112

     Orbital Basis Set                                     DZVP-MOLOPT-SR-GTH-q4

       Number of orbital shell sets:                                           1
       Number of orbital shells:                                               5
       Number of primitive Cartesian functions:                                5
       Number of Cartesian basis functions:                                   14
       Number of spherical basis functions:                                   13
       Norm type:                                                              2

       Normalised Cartesian orbitals:

                        Set   Shell   Orbital            Exponent    Coefficient

                          1       1    2s                5.605331       0.322515
                                                         2.113016       0.213043
                                                         0.769911      -0.209686
                                                         0.348157      -0.219794
                                                         0.128212      -0.022789

                          1       2    3s                5.605331       0.552234
                                                         2.113016       0.082072
                                                         0.769911       0.007843
                                                         0.348157       0.136893
                                                         0.128212       0.074283

                          1       3    3px               5.605331      -0.703879
                                                         2.113016      -0.642521
                                                         0.769911      -0.374851
                                                         0.348157      -0.139743
                                                         0.128212      -0.027849
                          1       3    3py               5.605331      -0.703879
                                                         2.113016      -0.642521
                                                         0.769911      -0.374851
                                                         0.348157      -0.139743
                                                         0.128212      -0.027849
                          1       3    3pz               5.605331      -0.703879
                                                         2.113016      -0.642521
                                                         0.769911      -0.374851
                                                         0.348157      -0.139743
                                                         0.128212      -0.027849

                          1       4    4px               5.605331      -0.480376
                                                         2.113016      -0.552894
                                                         0.769911      -0.316145
                                                         0.348157       0.210505
                                                         0.128212       0.076095
                          1       4    4py               5.605331      -0.480376
                                                         2.113016      -0.552894
                                                         0.769911      -0.316145
                                                         0.348157       0.210505
                                                         0.128212       0.076095
                          1       4    4pz               5.605331      -0.480376
                                                         2.113016      -0.552894
                                                         0.769911      -0.316145
                                                         0.348157       0.210505
                                                         0.128212       0.076095

                          1       5    4dx2              5.605331       0.640026
                                                         2.113016       0.274300
                                                         0.769911       0.446711
                                                         0.348157       0.028674
                                                         0.128212       0.029790
                          1       5    4dxy              5.605331       1.108557
                                                         2.113016       0.475102
                                                         0.769911       0.773726
                                                         0.348157       0.049666
                                                         0.128212       0.051599
                          1       5    4dxz              5.605331       1.108557
                                                         2.113016       0.475102
                                                         0.769911       0.773726
                                                         0.348157       0.049666
                                                         0.128212       0.051599
                          1       5    4dy2              5.605331       0.640026
                                                         2.113016       0.274300
                                                         0.769911       0.446711
                                                         0.348157       0.028674
                                                         0.128212       0.029790
                          1       5    4dyz              5.605331       1.108557
                                                         2.113016       0.475102
                                                         0.769911       0.773726
                                                         0.348157       0.049666
                                                         0.128212       0.051599
                          1       5    4dz2              5.605331       0.640026
                                                         2.113016       0.274300
                                                         0.769911       0.446711
                                                         0.348157       0.028674
                                                         0.128212       0.029790

     Auxiliary Fit Basis Set                                               pFIT3

       Number of orbital shell sets:                                           7
       Number of orbital shells:                                               7
       Number of primitive Cartesian functions:                                7
       Number of Cartesian basis functions:                                   18
       Number of spherical basis functions:                                   17
       Norm type:                                                              2

       Normalised Cartesian orbitals:

                        Set   Shell   Orbital            Exponent    Coefficient

                          1       1    1s                0.143490       0.166160

                          2       1    1s                0.450840       0.392127

                          3       1    1s                4.420950       2.172935

                          4       1    1px               0.152150       0.135450
                          4       1    1py               0.152150       0.135450
                          4       1    1pz               0.152150       0.135450

                          5       1    1px               0.670820       0.865362
                          5       1    1py               0.670820       0.865362
                          5       1    1pz               0.670820       0.865362

                          6       1    1px               3.053900       5.754513
                          6       1    1py               3.053900       5.754513
                          6       1    1pz               3.053900       5.754513

                          7       1    1dx2              0.800000       1.113825
                          7       1    1dxy              0.800000       1.929201
                          7       1    1dxz              0.800000       1.929201
                          7       1    1dy2              0.800000       1.113825
                          7       1    1dyz              0.800000       1.929201
                          7       1    1dz2              0.800000       1.113825

       Atomic covalent radius [Angstrom]:                                  0.770

       Atomic van der Waals radius [Angstrom]:                             1.700

     GTH Potential information for                                    GTH-PBE-q4

       Description:                       Goedecker-Teter-Hutter pseudopotential
                                           Goedecker et al., PRB 54, 1703 (1996)
                                          Hartwigsen et al., PRB 58, 3641 (1998)
                                                      Krack, TCA 114, 145 (2005)

       Gaussian exponent of the core charge distribution:               4.364419
       Electronic configuration (s p d ...):                               2   2

       Parameters of the local part of the GTH pseudopotential:

                          rloc        C1          C2          C3          C4
                        0.338471   -8.803674    1.339211

       Parameters of the non-local part of the GTH pseudopotential:

                   l      r(l)      h(i,j,l)

                   0    0.302576    9.622487
                   1    0.291507


 MOLECULE KIND INFORMATION


 All atoms are their own molecule, skipping detailed information


 TOTAL NUMBERS AND MAXIMUM NUMBERS

  Total number of            - Atomic kinds:                                   5
                             - Atoms:                                        296
                             - Shell sets:                                   296
                             - Shells:                                      1296
                             - Primitive Cartesian functions:               1552
                             - Cartesian basis functions:                   3344
                             - Spherical basis functions:                   3120

[...]
 flops    34 x    32 x     5         564875673600       0.0%      0.5%     99.5%
 flops     5 x    32 x    34         564875673600       0.0%      0.6%     99.4%
 flops     5 x    32 x    32         728933990400       0.0%      0.0%    100.0%
 flops    32 x    32 x    32         857309184000       0.0%      0.0%    100.0%
 flops    32 x    32 x     5         920715264000       0.0%      0.0%    100.0%
 flops    13 x    24 x    13         959156520192       0.0%      2.5%     97.5%
 flops     5 x    32 x     5        1162979328000       0.0%      0.1%     99.9%
 flops    13 x    13 x    32        1750174545600       0.0%      0.0%    100.0%
 flops    34 x    32 x    13        2307920609280       0.0%      0.0%    100.0%
 flops    13 x    32 x    34        2307920609280       0.0%      0.0%    100.0%
 flops    13 x    32 x    32        2978216017920       0.0%      0.0%    100.0%
 flops    32 x    32 x    13        3761779507200       0.0%      0.0%    100.0%
 flops     5 x    32 x    13        4742597433600       0.0%      0.2%     99.8%
 flops    13 x    32 x     5        4742597433600       0.0%      0.1%     99.9%
 flops    13 x    32 x    13       19183130403840       0.0%      0.6%     99.4%
 flops inhomo. stacks                           0       0.0%      0.0%      0.0%
 flops total                        53.201732E+12       0.0%      2.2%     97.8%
 flops max/rank                      1.840643E+12       0.0%      9.0%     91.0%
 matmuls inhomo. stacks                         0       0.0%      0.0%      0.0%
 matmuls total                        10625524629       0.0%     40.2%     59.8%
 number of processed stacks              38419244       0.0%     55.1%     44.9%
 average stack size                                     0.0     201.5     368.7
 marketing flops                    57.159304E+12
 -------------------------------------------------------------------------------
 # multiplications                         341054
 max memory usage/rank             786.268160E+06
 # max total images/rank                        1
 # max 3D layers                                1
 # MPI messages exchanged               122779440
 MPI messages size (bytes):
  total size                        22.385778E+12
  min size                           0.000000E+00
  max size                           2.179872E+06
  average size                     182.325141E+03
 MPI breakdown and total messages size (bytes):
             size <=      128            95026800                 12907440
       128 < size <=     8192             7314360              27865615600
      8192 < size <=    32768              458540              15000555520
     32768 < size <=   131072             3651040             217370250040
    131072 < size <=  4194304            16328700           22134674597360
   4194304 < size <= 16777216                   0                        0
  16777216 < size                               0                        0
 -------------------------------------------------------------------------------
 -                                                                             -
 -                      DBCSR MESSAGE PASSING PERFORMANCE                      -
 -                                                                             -
 -------------------------------------------------------------------------------
 ROUTINE             CALLS      AVE VOLUME [Bytes]
 MP_Bcast              119                     12.
 MP_Allreduce      1099132                      8.
 MP_Alltoall       1085948                  14004.
 MP_ISend          8181288                  78962.
 MP_IRecv          8181288                  78739.
 -------------------------------------------------------------------------------

 -------------------------------------------------------------------------------
 -                                                                             -
 -                                GRID STATISTICS                              -
 -                                                                             -
 -------------------------------------------------------------------------------
 LP    KERNEL             BACKEND                              COUNT     PERCENT
 3     collocate general  GPU                              126987425      21.79%
 3     integrate general  GPU                              112788716      19.35%
 4     collocate general  GPU                              108402831      18.60%
 4     integrate general  GPU                               96282876      16.52%
 2     collocate general  GPU                               41713341       7.16%
 2     integrate general  GPU                               37048245       6.36%
 5     integrate general  GPU                               16353098       2.81%
 6     integrate general  GPU                               14487303       2.49%
 5     collocate general  GPU                               13233061       2.27%
 7     integrate general  GPU                               11949241       2.05%
 8     integrate general  GPU                                1458456       0.25%
 0     collocate general  REF                                 756576       0.13%
 3     integrate general  REF                                 745920       0.13%
 6     collocate general  GPU                                 550084       0.09%
 9     integrate general  GPU                                  60692       0.01%
 -------------------------------------------------------------------------------

 MEMORY| Estimated peak process memory [MiB]                                 750

 -------------------------------------------------------------------------------
 ----                             MULTIGRID INFO                            ----
 -------------------------------------------------------------------------------
 count for grid        1:        6059212          cutoff [a.u.]          300.00
 count for grid        2:        6741959          cutoff [a.u.]          100.00
 count for grid        3:       12127315          cutoff [a.u.]           33.33
 count for grid        4:       11502690          cutoff [a.u.]           11.11
 total gridlevel count  :       36431176

 -------------------------------------------------------------------------------
 -                                                                             -
 -                         MESSAGE PASSING PERFORMANCE                         -
 -                                                                             -
 -------------------------------------------------------------------------------

 ROUTINE             CALLS      AVE VOLUME [Bytes]
 MP_Group                4
 MP_Bcast            88608                  33941.
 MP_Allreduce       222030                     96.
 MP_Sync             13550
 MP_Alltoall         13187               12273159.
 MP_SendRecv          9800                   4805.
 MP_ISendRecv        88830                  80352.
 MP_Wait            135501
 MP_comm_split        6737
 MP_ISend            34686                1205438.
 MP_IRecv            34686                1205450.
 MP_Recv              2973                 440663.
 -------------------------------------------------------------------------------


 -------------------------------------------------------------------------------
 -                                                                             -
 -                           R E F E R E N C E S                               -
 -                                                                             -
 -------------------------------------------------------------------------------
 
 CP2K version 9.1, the CP2K developers group (2021).
 CP2K is freely available from https://www.cp2k.org/ .

 Kuehne,Thomas D.; Iannuzzi,Marcella; Del Ben,Mauro;
 Rybkin,Vladimir V.; Seewald,Patrick; Stein,Frederick; Laino,Teodoro;
 Khaliullin,Rustam Z.; Schuett,Ole; Schiffmann,Florian; Golze,Dorothea;
 Wilhelm,Jan; Chulkov,Sergey; Bani-Hashemian,Mohammad Hossein;
 Weber,Valery; Borstnik,Urban; Taillefumier,Mathieu;
 Jakobovits,Alice Shoshana; Lazzaro,Alfio; Pabst,Hans; Mueller,Tiziano;
 Schade,Robert; Guidon,Manuel; Andermatt,Samuel; Holmberg,Nico;
 Schenter,Gregory K.; Hehn,Anna; Bussy,Augustin; Belleflamme,Fabian;
 Tabacchi,Gloria; Gloess,Andreas; Lass,Michael; Bethune,Iain;
 Mundy,Christopher J.; Plessl,Christian; Watkins,Matt;
 VandeVondele,Joost; Krack,Matthias; Hutter,Juerg. 
 The Journal of Chemical Physics, 152 (19), (2020). 
 CP2K: An electronic structure and molecular dynamics software package -
 Quickstep: Efficient and accurate electronic structure calculations.
 https://doi.org/10.1063/5.0007045

 Goerigk, Lars; Hansen, Andreas; Bauer, Christoph; Ehrlich, Stephan;
 Najibi, Asim; Grimme, Stefan. , 19 (48), (2017). 
 A look at the density functional theory zoo with the advanced GMTKN55 database
 for general main group thermochemistry, kinetics and noncovalent interactions.
 https://doi.org/10.1039/C7CP04913G

 Schuett, Ole; Messmer, Peter; Hutter, Juerg; VandeVondele, Joost. 
 Electronic Structure Calculations on Graphics Processing Units, John
 Wiley & Sons, Ltd, 173-190 (2016). 
 GPU-Accelerated Sparse Matrix-Matrix Multiplication for
 Linear Scaling Density Functional Theory.
 https://doi.org/10.1002/9781118670712.ch8

 Borstnik, U; VandeVondele, J; Weber, V; Hutter, J. 
 PARALLEL COMPUTING, 40 (5-6), 47-58 (2014). 
 Sparse matrix multiplication: The distributed block-compressed sparse
 row library.
 https://doi.org/10.1016/j.parco.2014.03.012

 Hutter, J; Iannuzzi, M; Schiffmann, F; VandeVondele, J. 
 WIREs Comput Mol Sci., 4 (1), 15-25 (2014). 
 CP2K: atomistic simulations of condensed matter systems.
 https://doi.org/10.1002/wcms.1159

 Marek, A; Blum, V; Johanni, R; Havu, V; Lang, B; Auckenthaler, T;
 Heinecke, A; Bungartz, H; Lederer, H. 
 Journal of Physics: Condensed Matter, 26 (21), (2014). 
 The ELPA library: scalable parallel eigenvalue solutions for
 electronic structure
 theory and computational science.
 https://doi.org/10.1088/0953-8984/26/21/213201

 Grimme, S; Ehrlich, S; Goerigk, L. 
 JOURNAL OF COMPUTATIONAL CHEMISTRY, 32, 1456 (2011). 
 Effect of the damping function in dispersion corrected density functional theory.
 https://doi.org/10.1002/jcc.21759

 Grimme, S; Antony, J; Ehrlich, S; Krieg, H. 
 JOURNAL OF CHEMICAL PHYSICS, 132 (15), 154104 (2010). 
 A consistent and accurate ab initio parametrization of density
 functional dispersion correction (DFT-D) for the 94 elements H-Pu.
 https://doi.org/10.1063/1.3382344

 VandeVondele, J; Hutter, J. 
 JOURNAL OF CHEMICAL PHYSICS, 127 (11), 114105 (2007). 
 Gaussian basis sets for accurate calculations on molecular systems in
 gas and condensed phases.
 https://doi.org/10.1063/1.2770708

 Kuhne, TD; Krack, M; Mohamed, FR; Parrinello, M. 
 PHYSICAL REVIEW LETTERS, 98 (6), 066401 (2007). 
 Efficient and accurate Car-Parrinello-like approach to
 Born-Oppenheimer molecular dynamics.
 https://doi.org/10.1103/PhysRevLett.98.066401

 Krack, M. 
 THEORETICAL CHEMISTRY ACCOUNTS, 114 (1-3), 145-152 (2005). 
 Pseudopotentials for H to Kr optimized for gradient-corrected
 exchange-correlation functionals.
 https://doi.org/10.1007/s00214-005-0655-y

 VandeVondele, J; Krack, M; Mohamed, F; Parrinello, M; Chassaing, T;
 Hutter, J. COMPUTER PHYSICS COMMUNICATIONS, 167 (2), 103-128 (2005). 
 QUICKSTEP: Fast and accurate density functional calculations using a
 mixed Gaussian and plane waves approach.
 https://doi.org/10.1016/j.cpc.2004.12.014

 Frigo, M; Johnson, SG. 
 PROCEEDINGS OF THE IEEE, 93 (2), 216-231 (2005). 
 The design and implementation of FFTW3.
 https://doi.org/10.1109/JPROC.2004.840301

 Kolafa, J. 
 JOURNAL OF COMPUTATIONAL CHEMISTRY, 25 (3), 335-342 (2004). 
 Time-reversible always stable predictor-corrector method for
 molecular dynamics of polarizable molecules.
 https://doi.org/10.1002/jcc.10385

 VandeVondele, J; Hutter, J. 
 JOURNAL OF CHEMICAL PHYSICS, 118 (10), 4365-4369 (2003). 
 An efficient orbital transformation method for electronic structure
 calculations.
 https://doi.org/10.1063/1.1543154

 Hartwigsen, C; Goedecker, S; Hutter, J. 
 PHYSICAL REVIEW B, 58 (7), 3641-3662 (1998). 
 Relativistic separable dual-space Gaussian pseudopotentials from H to Rn.
 https://doi.org/10.1103/PhysRevB.58.3641

 Lippert, G; Hutter, J; Parrinello, M. 
 MOLECULAR PHYSICS, 92 (3), 477-487 (1997). 
 A hybrid Gaussian and plane wave density functional scheme.
 https://doi.org/10.1080/002689797170220

 Perdew, JP; Burke, K; Ernzerhof, M. 
 PHYSICAL REVIEW LETTERS, 77 (18), 3865-3868 (1996). 
 Generalized gradient approximation made simple.
 https://doi.org/10.1103/PhysRevLett.77.3865

 Goedecker, S; Teter, M; Hutter, J. 
 PHYSICAL REVIEW B, 54 (3), 1703-1710 (1996). 
 Separable dual-space Gaussian pseudopotentials.
 https://doi.org/10.1103/PhysRevB.54.1703


 -------------------------------------------------------------------------------
 -                                                                             -
 -                                T I M I N G                                  -
 -                                                                             -
 -------------------------------------------------------------------------------
 SUBROUTINE                       CALLS  ASD         SELF TIME        TOTAL TIME
                                MAXIMUM       AVERAGE  MAXIMUM  AVERAGE  MAXIMUM
 CP2K                                 1  1.0    0.050    0.071 6279.835 6279.836
 cp_geo_opt                           1  2.0    0.000    0.000 6278.956 6278.957
 geoopt_bfgs                          1  3.0    0.052    0.102 6278.956 6278.957
 cp_eval_at                          71  4.0    0.007    0.010 6263.090 6263.135
 qs_forces                           70  5.0    0.014    0.015 6210.484 6210.485
 qs_energies                         71  6.0    0.005    0.006 4816.550 4816.656
 scf_post_calculation_gpw            71  7.0    0.004    0.006 3160.444 3160.469
 dbcsr_multiply_generic          341054 11.9   12.429   12.797 3093.789 3156.827
 make_lumo_gpw                       71  8.0    0.001    0.002 3154.746 3154.749
 ot_eigensolver                      71  9.0    0.370    0.402 3151.560 3151.563
 multiply_cannon                 341054 12.9   22.862   23.563 1493.008 2300.103
 rebuild_ks_matrix                  634  9.7    0.003    0.003 2296.118 2296.528
 qs_ks_build_kohn_sham_matrix       634 10.7    0.084    0.092 2296.116 2296.526
 sum_up_and_integrate               634 11.7    0.877    0.920 1831.450 1831.524
 integrate_v_rspace                 634 12.7    0.019    0.025 1830.571 1830.714
 scf_env_do_scf                      71  7.0    0.005    0.012 1527.950 1527.961
 multiply_cannon_loop            341054 13.9   66.091   68.132 1302.499 1466.186
 grid_integrate_task_list           634 13.7 1234.525 1378.624 1234.525 1378.624
 qs_ks_update_qs_env_forces          70  6.0    0.000    0.001 1365.022 1365.061
 scf_env_do_scf_inner_loop          564  8.0    0.012    0.038 1274.185 1276.803
 ot_mini                          23747 10.0    0.099    0.106  943.536  944.607
 make_m2s                        682108 12.9    5.498    5.757  868.790  936.469
 qs_ks_update_qs_env                636  9.0    0.004    0.005  931.721  932.091
 make_images                     682108 13.9   22.095   23.818  858.494  926.271
 qs_ot_get_derivative             12191 11.1    0.097    0.105  890.394  892.261
 mp_waitall_1                   ******* 16.1  723.479  823.602  723.479  823.602
 mp_allgather_i34                341054 13.9  102.590  773.455  102.590  773.455
 mp_alltoall_d11v                186535 14.6  547.650  682.418  547.650  682.418
 rs_gather_matrices                 634 13.7    0.690    0.732  482.508  617.619
 dbcsr_data_new                 8230407 14.9  480.919  577.264  480.919  577.264
 multiply_cannon_multrec        2046324 14.9   59.339  112.122  269.584  548.827
 qs_ot_get_p                      24439 10.0    0.130    0.146  467.120  486.040
 qs_ot_get_derivative_taylor       9195 12.1    0.277    0.291  467.539  468.469
 mp_sum_l                       1023431 12.9  416.291  465.831  416.291  465.831
 multiply_cannon_acc_sync_right 1705270 14.9  387.234  463.357  387.234  463.357
 pw_transfer                      12122 13.4    0.711    0.871  412.096  428.605
 fft_wrap_pw1pw2                  10854 14.5    0.099    0.116  407.317  423.739
 fft_wrap_pw1pw2_300               7047 15.5    0.033    0.037  392.560  408.598
 qs_vxc_create                      634 11.7    0.013    0.017  381.768  383.092
 xc_vxc_pw_create                   634 12.7   12.238   14.421  381.755  383.084
 dbcsr_data_release             ******* 15.2  287.589  358.714  287.589  358.714
 make_images_data                682108 14.9    4.656    5.665  253.463  352.250
 dbcsr_destroy                  2351706 13.2    2.521    2.590  279.787  349.962
 qs_rho_update_rho                  635  9.1    0.003    0.004  347.065  348.724
 calculate_rho_elec                 635 10.1    0.829    0.869  347.062  348.721
 multiply_cannon_metrocomm3     2046324 14.9    4.634    4.792  243.819  323.550
 multiply_cannon_metrocomm1     2046324 14.9    5.139    5.357  249.306  319.093
 hybrid_alltoall_any             696250 15.9    9.495   40.934  225.714  297.814
 qs_ot_get_orbitals               24367 10.0    0.095    0.101  260.370  263.788
 init_scf_loop                       72  8.0    0.002    0.003  250.939  250.949
 multiply_cannon_multrec_finali  341054 15.9    0.557    0.611  152.395  243.978
 dbcsr_mm_multrec_finalize       341054 16.9    1.657    2.086  151.839  243.391
 dbcsr_mm_sched_finalize         341054 17.9  143.874  241.325  150.181  241.756
 mp_sum_d                        180237 13.3  134.778  226.990  134.778  226.990
 pw_cuda_c1dr3d_3d_ps              5707 16.9    0.124    0.151  218.121  225.263
 xc_rho_set_and_dset_create         634 13.7    1.355    1.555  216.859  222.064
 pw_cuda_r3dc1d_3d_ps              5147 16.0    0.093    0.098  189.051  205.657
 rs_pw_transfer                    5217 13.3    0.089    0.098  182.288  189.148
 density_rs2pw                      635 11.1    0.035    0.037  178.824  187.742
 grid_collocate_task_list           635 11.1  163.366  171.080  163.366  171.080
 arnoldi_extremal                 24439 11.0    0.146    0.159   84.825  170.461
 arnoldi_normal_ev                24439 12.0    0.327    0.383   84.679  170.302
 arnoldi_init                     24439 13.0    0.220    0.289   80.217  165.719
 qs_scf_new_mos                     564  9.0    0.003    0.004  152.258  152.573
 qs_scf_loop_do_ot                  564 10.0    0.004    0.004  152.255  152.570
 mp_alltoall_z22v                 10854 18.5   99.675  150.424   99.675  150.424
 dbcsr_matrix_vector_mult         27654 14.3    0.218    0.237    7.440  147.955
 mp_sum_dv                        62137 15.8    5.912  146.640    5.912  146.640
 qs_ot_get_derivative_diag         2996 12.1    0.062    0.064  143.169  143.549
 ot_scf_mini                        564 11.0    0.012    0.013  142.318  142.479
 prepare_preconditioner              72  9.0    0.000    0.001  128.176  128.242
 dbcsr_mm_accdrv_process        4656878 15.7   21.773   76.087   43.222  125.624
 -------------------------------------------------------------------------------

 The number of warnings for this run is : 0
 
 -------------------------------------------------------------------------------
  **** **** ******  **  PROGRAM ENDED AT                 2022-04-06 14:17:53.686
 ***** ** ***  *** **   PROGRAM RAN ON                                  nid03317
 **    ****   ******    PROGRAM RAN BY                                  bbuenomo
 ***** **    ** ** **   PROGRAM PROCESS ID                                 21439
  **** **  *******  **  PROGRAM STOPPED IN /scratch/snx3000/bbuenomo/ta/geo-opt/
                                           exp
