 DBCSR| CPU Multiplication driver                                            SMM
 DBCSR| Multrec recursion limit                                              512
 DBCSR| Multiplication stack size                                          30000
 DBCSR| Maximum elements for images                                    UNLIMITED
 DBCSR| Multiplicative factor virtual images                                   1
 DBCSR| Use multiplication densification                                       F
 DBCSR| Multiplication size stacks                                             3
 DBCSR| Use memory pool for CPU allocation                                     F
 DBCSR| Number of 3D layers                                               SINGLE
 DBCSR| Use MPI memory allocation                                              F
 DBCSR| Use RMA algorithm                                                      F
 DBCSR| Use Communication thread                                               T
 DBCSR| Communication thread load                                             87
 DBCSR| MPI: My node id                                                        0
 DBCSR| MPI: Number of nodes                                                  24
 DBCSR| OMP: Current number of threads                                         1
 DBCSR| OMP: Max number of threads                                             1
 DBCSR| ACC: Number of devices/node                                            1
 DBCSR| ACC: Number of priority stack-buffers                                 40
 DBCSR| ACC: Number of posterior stack-buffers                                80
 DBCSR| ACC: Number of priority streams                                        4
 DBCSR| ACC: Number of posterior streams                                       4
 DBCSR| ACC: Avoid driver after busy                                           F
 DBCSR| ACC: Process inhomogeneous stacks                                      T
 DBCSR| ACC: Min. flop for processing                                          0
 DBCSR| ACC: Min. flop for sorting                                          4000
 DBCSR| ACC: Number of binning bins                                         4096
 DBCSR| ACC: Size of binning bins                                             16
 DBCSR| Split modifier for TAS multiplication algorithm                  1.0E+00


  **** **** ******  **  PROGRAM STARTED AT               2022-04-05 11:12:05.380
 ***** ** ***  *** **   PROGRAM STARTED ON                              nid02103
 **    ****   ******    PROGRAM STARTED BY                              bbuenomo
 ***** **    ** ** **   PROGRAM PROCESS ID                                 20453
  **** **  *******  **  PROGRAM STARTED IN /scratch/snx3000/bbuenomo/aiida-pc/63
                                           /f5/9385-7967-4d18-b058-0568b0a68b23

 CP2K| version string:                                          CP2K version 9.1
 CP2K| source code revision number:                                  git:d8d7100
 CP2K| cp2kflags: omp libint fftw3 libxc elpa elpa_nvidia_gpu parallel mpi3 scal
 CP2K|            apack pw_cuda smm_dnn smm dbcsr_acc max_contr=4 plumed2 spglib sirius libvori libbqb grid_cuda
 CP2K| is freely available from                            https://www.cp2k.org/
 CP2K| Program compiled at                          Mon 21 Feb 14:02:30 CET 2022
 CP2K| Program compiled on                                              daint102
 CP2K| Program compiled for                                CP2K-9.1-CrayGNU-cuda
 CP2K| Data directory path    /apps/daint/UES/jenkins/7.0.UP03/21.09/daint-gpu/s
 CP2K| Input file name                                                 aiida.inp

 GLOBAL| Force Environment number                                              1
 GLOBAL| Basis set file name                                        BASIS_MOLOPT
 GLOBAL| Potential file name                                      GTH_POTENTIALS
 GLOBAL| MM Potential file name                                     MM_POTENTIAL
 GLOBAL| Coordinate file name                                   aiida.coords.xyz
 GLOBAL| Method name                                                        CP2K
 GLOBAL| Project name                                                      aiida
 GLOBAL| Run type                                                         ENERGY
 GLOBAL| FFT library                                                       FFTW3
 GLOBAL| Diagonalization library                                            ELPA
 GLOBAL| Minimum number of eigenvectors for ELPA usage                        16
 GLOBAL| Orthonormality check for eigenvectors                          DISABLED
 GLOBAL| Matrix multiplication library                                 ScaLAPACK
 GLOBAL| All-to-all communication in single precision                          F
 GLOBAL| FFTs using library dependent lengths                                  F
 GLOBAL| Grid backend                                                       AUTO
 GLOBAL| Global print level                                               MEDIUM
 GLOBAL| MPI I/O enabled                                                       T
 GLOBAL| Total number of message passing processes                            24
 GLOBAL| Number of threads for this process                                    1
 GLOBAL| This output is from process                                           0
 GLOBAL| Stack size for threads created by OpenMP (OMP_STACKSIZE)        default
 GLOBAL| CPU model name                Intel(R) Xeon(R) CPU E5-2690 v3 @ 2.60GHz
 GLOBAL| CPUID                                                              1002

 MEMORY| system memory details [Kb]
 MEMORY|                        rank 0           min           max       average
 MEMORY| MemTotal             65740148      65740148      65740148      65740148
 MEMORY| MemFree              56958412      56631500      56958412      56794956
 MEMORY| Buffers                  7564          7520          7564          7542
 MEMORY| Cached                3042708       3042708       3312080       3177394
 MEMORY| Slab                   268360        267884        268360        268122
 MEMORY| SReclaimable            56976         54280         56976         55628
 MEMORY| MemLikelyFree        60065660      60005380      60065660      60035520


 *** Fundamental physical constants (SI units) ***

 *** Literature: B. J. Mohr and B. N. Taylor,
 ***             CODATA recommended values of the fundamental physical
 ***             constants: 2006, Web Version 5.1
 ***             http://physics.nist.gov/constants

 Speed of light in vacuum [m/s]                             2.99792458000000E+08
 Magnetic constant or permeability of vacuum [N/A**2]       1.25663706143592E-06
 Electric constant or permittivity of vacuum [F/m]          8.85418781762039E-12
 Planck constant (h) [J*s]                                  6.62606896000000E-34
 Planck constant (h-bar) [J*s]                              1.05457162825177E-34
 Elementary charge [C]                                      1.60217648700000E-19
 Electron mass [kg]                                         9.10938215000000E-31
 Electron g factor [ ]                                     -2.00231930436220E+00
 Proton mass [kg]                                           1.67262163700000E-27
 Fine-structure constant                                    7.29735253760000E-03
 Rydberg constant [1/m]                                     1.09737315685270E+07
 Avogadro constant [1/mol]                                  6.02214179000000E+23
 Boltzmann constant [J/K]                                   1.38065040000000E-23
 Atomic mass unit [kg]                                      1.66053878200000E-27
 Bohr radius [m]                                            5.29177208590000E-11

 *** Conversion factors ***

 [u] -> [a.u.]                                              1.82288848426455E+03
 [Angstrom] -> [Bohr] = [a.u.]                              1.88972613288564E+00
 [a.u.] = [Bohr] -> [Angstrom]                              5.29177208590000E-01
 [a.u.] -> [s]                                              2.41888432650478E-17
 [a.u.] -> [fs]                                             2.41888432650478E-02
 [a.u.] -> [J]                                              4.35974393937059E-18
 [a.u.] -> [N]                                              8.23872205491840E-08
 [a.u.] -> [K]                                              3.15774647902944E+05
 [a.u.] -> [kJ/mol]                                         2.62549961709828E+03
 [a.u.] -> [kcal/mol]                                       6.27509468713739E+02
 [a.u.] -> [Pa]                                             2.94210107994716E+13
 [a.u.] -> [bar]                                            2.94210107994716E+08
 [a.u.] -> [atm]                                            2.90362800883016E+08
 [a.u.] -> [eV]                                             2.72113838565563E+01
 [a.u.] -> [Hz]                                             6.57968392072181E+15
 [a.u.] -> [1/cm] (wave numbers)                            2.19474631370540E+05
 [a.u./Bohr**2] -> [1/cm]                                   5.14048714338585E+03
 

 CELL_TOP| Volume [angstrom^3]:                                      2861.131034
 CELL_TOP| Vector a [angstrom     0.000     7.541    13.063   |a| =    15.083094
 CELL_TOP| Vector b [angstrom    14.522     0.000     0.000   |b| =    14.521652
 CELL_TOP| Vector c [angstrom     0.000    15.083     0.000   |c| =    15.083085
 CELL_TOP| Angle (b,c), alpha [degree]:                                90.000000
 CELL_TOP| Angle (a,c), beta  [degree]:                                60.002395
 CELL_TOP| Angle (a,b), gamma [degree]:                                90.000000
 CELL_TOP| Numerically orthorhombic:                                          NO

 GENERATE|  Preliminary Number of Bonds generated:                             0
 GENERATE|  Achieved consistency in connectivity generation.

 CELL| Volume [angstrom^3]:                                          2861.131034
 CELL| Vector a [angstrom]:       0.000     7.541    13.063   |a| =    15.083094
 CELL| Vector b [angstrom]:      14.522     0.000     0.000   |b| =    14.521652
 CELL| Vector c [angstrom]:       0.000    15.083     0.000   |c| =    15.083085
 CELL| Angle (b,c), alpha [degree]:                                    90.000000
 CELL| Angle (a,c), beta  [degree]:                                    60.002395
 CELL| Angle (a,b), gamma [degree]:                                    90.000000
 CELL| Numerically orthorhombic:                                              NO

 CELL_REF| Volume [angstrom^3]:                                      2861.131034
 CELL_REF| Vector a [angstrom     0.000     7.541    13.063   |a| =    15.083094
 CELL_REF| Vector b [angstrom    14.522     0.000     0.000   |b| =    14.521652
 CELL_REF| Vector c [angstrom     0.000    15.083     0.000   |c| =    15.083085
 CELL_REF| Angle (b,c), alpha [degree]:                                90.000000
 CELL_REF| Angle (a,c), beta  [degree]:                                60.002395
 CELL_REF| Angle (a,b), gamma [degree]:                                90.000000
 CELL_REF| Numerically orthorhombic:                                          NO

 *******************************************************************************
                                    Kpoints
 *******************************************************************************
 BRILLOUIN| K-point scheme                                        Monkhorst-Pack
 BRILLOUIN| K-Point grid                                             1    1    3
 BRILLOUIN| Accuracy in Symmetry determination                      0.100000E-05
 BRILLOUIN| K-Point point group symmetrization                               OFF
 BRILLOUIN| Wavefunction type                                            COMPLEX
 BRILLOUIN| Use full k-point grid     
 BRILLOUIN| List of Kpoints [2 Pi/Bohr]                                        3
 BRILLOUIN| Number           Weight            X              Y              Z
 BRILLOUIN|     1           0.33333        0.00000        0.00000       -0.33333
 BRILLOUIN|     2           0.33333        0.00000        0.00000        0.00000
 BRILLOUIN|     3           0.33333        0.00000        0.00000        0.33333
 *******************************************************************************

 *******************************************************************************
 *******************************************************************************
 **                                                                           **
 **     #####                         ##              ##                      **
 **    ##   ##            ##          ##              ##                      **
 **   ##     ##                       ##            ######                    **
 **   ##     ##  ##   ##  ##   #####  ##  ##   ####   ##    #####    #####    **
 **   ##     ##  ##   ##  ##  ##      ## ##   ##      ##   ##   ##  ##   ##   **
 **   ##  ## ##  ##   ##  ##  ##      ####     ###    ##   ######   ######    **
 **    ##  ###   ##   ##  ##  ##      ## ##      ##   ##   ##       ##        **
 **     #######   #####   ##   #####  ##  ##  ####    ##    #####   ##        **
 **           ##                                                    ##        **
 **                                                                           **
 **                                                ... make the atoms dance   **
 **                                                                           **
 **            Copyright (C) by CP2K developers group (2000-2021)             **
 **                      J. Chem. Phys. 152, 194103 (2020)                    **
 **                                                                           **
 *******************************************************************************

 DFT| Spin restricted Kohn-Sham (RKS) calculation                            RKS
 DFT| Multiplicity                                                             1
 DFT| Number of spin states                                                    1
 DFT| Charge                                                                   0
 DFT| Self-interaction correction (SIC)                                       NO
 DFT| Cutoffs: density                                              1.000000E-10
 DFT|          gradient                                             1.000000E-10
 DFT|          tau                                                  1.000000E-10
 DFT|          cutoff_smoothing_range                               0.000000E+00
 DFT| XC density smoothing                                                  NONE
 DFT| XC derivatives                                                          PW
 FUNCTIONAL| ROUTINE=NEW
 FUNCTIONAL| PBE:
 FUNCTIONAL| J.P.Perdew, K.Burke, M.Ernzerhof, Phys. Rev. Letter, vol. 77, n 18,
 FUNCTIONAL|  pp. 3865-3868, (1996){spin unpolarized}                           
 vdW POTENTIAL|                                                   Pair Potential
 vdW POTENTIAL|          DFT-D3 (Version 3.1)
 vdW POTENTIAL|          Potential Form: S. Grimme et al, JCP 132: 154104 (2010)
 vdW POTENTIAL|          BJ Damping: S. Grimme et al, JCC 32: 1456 (2011)
 vdW POTENTIAL|          Cutoff Radius [Bohr]:                             20.00
 vdW POTENTIAL|          s6 Scaling Factor:                               1.0000
 vdW POTENTIAL|          a1 Damping Factor:                               0.4289
 vdW POTENTIAL|          s8 Scaling Factor:                               0.7875
 vdW POTENTIAL|          a2 Damping Factor:                               4.4407
 vdW POTENTIAL|          Cutoff for CN calculation:                   0.1000E-05

 QS| Method:                                                                 GPW
 QS| Density plane wave grid type                        NON-SPHERICAL FULLSPACE
 QS| Number of grid levels:                                                    5
 QS| Density cutoff [a.u.]:                                                300.0
 QS| Multi grid cutoff [a.u.]: 1) grid level                               300.0
 QS|                           2) grid level                               100.0
 QS|                           3) grid level                                33.3
 QS|                           4) grid level                                11.1
 QS|                           5) grid level                                 3.7
 QS| Grid level progression factor:                                          3.0
 QS| Relative density cutoff [a.u.]:                                        30.0
 QS| Interaction thresholds: eps_pgf_orb:                                1.0E-05
 QS|                         eps_filter_matrix:                          0.0E+00
 QS|                         eps_core_charge:                            1.0E-12
 QS|                         eps_rho_gspace:                             1.0E-10
 QS|                         eps_rho_rspace:                             1.0E-10
 QS|                         eps_gvg_rspace:                             1.0E-05
 QS|                         eps_ppl:                                    1.0E-02
 QS|                         eps_ppnl:                                   1.0E-07


 ATOMIC KIND INFORMATION

  1. Atomic kind: B                                     Number of atoms:      12

     Orbital Basis Set                                     DZVP-MOLOPT-SR-GTH-q3

       Number of orbital shell sets:                                           1
       Number of orbital shells:                                               5
       Number of primitive Cartesian functions:                                4
       Number of Cartesian basis functions:                                   14
       Number of spherical basis functions:                                   13
       Norm type:                                                              2

       Normalised Cartesian orbitals:

                        Set   Shell   Orbital            Exponent    Coefficient

                          1       1    2s                3.053444       0.252402
                                                         0.915484       0.050494
                                                         0.329920      -0.219689
                                                         0.101655      -0.057697

                          1       2    3s                3.053444      -0.889751
                                                         0.915484      -0.125118
                                                         0.329920       0.537314
                                                         0.101655      -0.211019

                          1       3    3px               3.053444      -0.570049
                                                         0.915484      -0.388730
                                                         0.329920      -0.182602
                                                         0.101655      -0.024010
                          1       3    3py               3.053444      -0.570049
                                                         0.915484      -0.388730
                                                         0.329920      -0.182602
                                                         0.101655      -0.024010
                          1       3    3pz               3.053444      -0.570049
                                                         0.915484      -0.388730
                                                         0.329920      -0.182602
                                                         0.101655      -0.024010

                          1       4    4px               3.053444      -0.595374
                                                         0.915484      -0.502823
                                                         0.329920      -0.128778
                                                         0.101655       0.089873
                          1       4    4py               3.053444      -0.595374
                                                         0.915484      -0.502823
                                                         0.329920      -0.128778
                                                         0.101655       0.089873
                          1       4    4pz               3.053444      -0.595374
                                                         0.915484      -0.502823
                                                         0.329920      -0.128778
                                                         0.101655       0.089873

                          1       5    4dx2              3.053444      -0.371712
                                                         0.915484      -0.428539
                                                         0.329920      -0.123001
                                                         0.101655      -0.011638
                          1       5    4dxy              3.053444      -0.643825
                                                         0.915484      -0.742250
                                                         0.329920      -0.213044
                                                         0.101655      -0.020158
                          1       5    4dxz              3.053444      -0.643825
                                                         0.915484      -0.742250
                                                         0.329920      -0.213044
                                                         0.101655      -0.020158
                          1       5    4dy2              3.053444      -0.371712
                                                         0.915484      -0.428539
                                                         0.329920      -0.123001
                                                         0.101655      -0.011638
                          1       5    4dyz              3.053444      -0.643825
                                                         0.915484      -0.742250
                                                         0.329920      -0.213044
                                                         0.101655      -0.020158
                          1       5    4dz2              3.053444      -0.371712
                                                         0.915484      -0.428539
                                                         0.329920      -0.123001
                                                         0.101655      -0.011638

       Atomic covalent radius [Angstrom]:                                  0.820

       Atomic van der Waals radius [Angstrom]:                             1.920

     GTH Potential information for                                    GTH-PBE-q3

       Description:                       Goedecker-Teter-Hutter pseudopotential
                                           Goedecker et al., PRB 54, 1703 (1996)
                                          Hartwigsen et al., PRB 58, 3641 (1998)
                                                      Krack, TCA 114, 145 (2005)

       Gaussian exponent of the core charge distribution:               2.848129
       Electronic configuration (s p d ...):                               2   1

       Parameters of the local part of the GTH pseudopotential:

                          rloc        C1          C2          C3          C4
                        0.418991   -5.859462    0.903756

       Parameters of the non-local part of the GTH pseudopotential:

                   l      r(l)      h(i,j,l)

                   0    0.371320    6.297280
                   1    0.364563

  2. Atomic kind: H                                     Number of atoms:      36

     Orbital Basis Set                                     DZVP-MOLOPT-SR-GTH-q1

       Number of orbital shell sets:                                           1
       Number of orbital shells:                                               3
       Number of primitive Cartesian functions:                                5
       Number of Cartesian basis functions:                                    5
       Number of spherical basis functions:                                    5
       Norm type:                                                              2

       Normalised Cartesian orbitals:

                        Set   Shell   Orbital            Exponent    Coefficient

                          1       1    2s               10.068468      -0.133023
                                                         2.680223      -0.177618
                                                         0.791502      -0.258419
                                                         0.239116      -0.107525
                                                         0.082193      -0.014019

                          1       2    3s               10.068468       0.344673
                                                         2.680223       1.819821
                                                         0.791502      -0.999069
                                                         0.239116       0.017430
                                                         0.082193       0.082660

                          1       3    3px              10.068468       0.155326
                                                         2.680223       0.367157
                                                         0.791502       0.311480
                                                         0.239116       0.080105
                                                         0.082193       0.033440
                          1       3    3py              10.068468       0.155326
                                                         2.680223       0.367157
                                                         0.791502       0.311480
                                                         0.239116       0.080105
                                                         0.082193       0.033440
                          1       3    3pz              10.068468       0.155326
                                                         2.680223       0.367157
                                                         0.791502       0.311480
                                                         0.239116       0.080105
                                                         0.082193       0.033440

       Atomic covalent radius [Angstrom]:                                  0.320

       Atomic van der Waals radius [Angstrom]:                             1.090

     GTH Potential information for                                    GTH-PBE-q1

       Description:                       Goedecker-Teter-Hutter pseudopotential
                                           Goedecker et al., PRB 54, 1703 (1996)
                                          Hartwigsen et al., PRB 58, 3641 (1998)
                                                      Krack, TCA 114, 145 (2005)

       Gaussian exponent of the core charge distribution:              12.500000
       Electronic configuration (s p d ...):                                   1

       Parameters of the local part of the GTH pseudopotential:

                          rloc        C1          C2          C3          C4
                        0.200000   -4.178900    0.724463

  3. Atomic kind: C                                     Number of atoms:      96

     Orbital Basis Set                                     DZVP-MOLOPT-SR-GTH-q4

       Number of orbital shell sets:                                           1
       Number of orbital shells:                                               5
       Number of primitive Cartesian functions:                                5
       Number of Cartesian basis functions:                                   14
       Number of spherical basis functions:                                   13
       Norm type:                                                              2

       Normalised Cartesian orbitals:

                        Set   Shell   Orbital            Exponent    Coefficient

                          1       1    2s                5.605331       0.322515
                                                         2.113016       0.213043
                                                         0.769911      -0.209686
                                                         0.348157      -0.219794
                                                         0.128212      -0.022789

                          1       2    3s                5.605331       0.552234
                                                         2.113016       0.082072
                                                         0.769911       0.007843
                                                         0.348157       0.136893
                                                         0.128212       0.074283

                          1       3    3px               5.605331      -0.703879
                                                         2.113016      -0.642521
                                                         0.769911      -0.374851
                                                         0.348157      -0.139743
                                                         0.128212      -0.027849
                          1       3    3py               5.605331      -0.703879
                                                         2.113016      -0.642521
                                                         0.769911      -0.374851
                                                         0.348157      -0.139743
                                                         0.128212      -0.027849
                          1       3    3pz               5.605331      -0.703879
                                                         2.113016      -0.642521
                                                         0.769911      -0.374851
                                                         0.348157      -0.139743
                                                         0.128212      -0.027849

                          1       4    4px               5.605331      -0.480376
                                                         2.113016      -0.552894
                                                         0.769911      -0.316145
                                                         0.348157       0.210505
                                                         0.128212       0.076095
                          1       4    4py               5.605331      -0.480376
                                                         2.113016      -0.552894
                                                         0.769911      -0.316145
                                                         0.348157       0.210505
                                                         0.128212       0.076095
                          1       4    4pz               5.605331      -0.480376
                                                         2.113016      -0.552894
                                                         0.769911      -0.316145
                                                         0.348157       0.210505
                                                         0.128212       0.076095

                          1       5    4dx2              5.605331       0.640026
                                                         2.113016       0.274300
                                                         0.769911       0.446711
                                                         0.348157       0.028674
                                                         0.128212       0.029790
                          1       5    4dxy              5.605331       1.108557
                                                         2.113016       0.475102
                                                         0.769911       0.773726
                                                         0.348157       0.049666
                                                         0.128212       0.051599
                          1       5    4dxz              5.605331       1.108557
                                                         2.113016       0.475102
                                                         0.769911       0.773726
                                                         0.348157       0.049666
                                                         0.128212       0.051599
                          1       5    4dy2              5.605331       0.640026
                                                         2.113016       0.274300
                                                         0.769911       0.446711
                                                         0.348157       0.028674
                                                         0.128212       0.029790
                          1       5    4dyz              5.605331       1.108557
                                                         2.113016       0.475102
                                                         0.769911       0.773726
                                                         0.348157       0.049666
                                                         0.128212       0.051599
                          1       5    4dz2              5.605331       0.640026
                                                         2.113016       0.274300
                                                         0.769911       0.446711
                                                         0.348157       0.028674
                                                         0.128212       0.029790

       Atomic covalent radius [Angstrom]:                                  0.770

       Atomic van der Waals radius [Angstrom]:                             1.700

     GTH Potential information for                                    GTH-PBE-q4

       Description:                       Goedecker-Teter-Hutter pseudopotential
                                           Goedecker et al., PRB 54, 1703 (1996)
                                          Hartwigsen et al., PRB 58, 3641 (1998)
                                                      Krack, TCA 114, 145 (2005)

       Gaussian exponent of the core charge distribution:               4.364419
       Electronic configuration (s p d ...):                               2   2

       Parameters of the local part of the GTH pseudopotential:

                          rloc        C1          C2          C3          C4
                        0.338471   -8.803674    1.339211

       Parameters of the non-local part of the GTH pseudopotential:

                   l      r(l)      h(i,j,l)

                   0    0.302576    9.622487
                   1    0.291507

  4. Atomic kind: O                                     Number of atoms:      24

     Orbital Basis Set                                     DZVP-MOLOPT-SR-GTH-q6

       Number of orbital shell sets:                                           1
       Number of orbital shells:                                               5
       Number of primitive Cartesian functions:                                5
       Number of Cartesian basis functions:                                   14
       Number of spherical basis functions:                                   13
       Norm type:                                                              2

       Normalised Cartesian orbitals:

                        Set   Shell   Orbital            Exponent    Coefficient

                          1       1    2s               10.389228       0.396646
                                                         3.849621       0.208811
                                                         1.388401      -0.301641
                                                         0.496955      -0.274061
                                                         0.162492      -0.033677

                          1       2    3s               10.389228       0.303673
                                                         3.849621       0.240943
                                                         1.388401      -0.313066
                                                         0.496955      -0.043055
                                                         0.162492       0.213991

                          1       3    3px              10.389228      -1.530415
                                                         3.849621      -1.371928
                                                         1.388401      -0.761951
                                                         0.496955      -0.253695
                                                         0.162492      -0.035541
                          1       3    3py              10.389228      -1.530415
                                                         3.849621      -1.371928
                                                         1.388401      -0.761951
                                                         0.496955      -0.253695
                                                         0.162492      -0.035541
                          1       3    3pz              10.389228      -1.530415
                                                         3.849621      -1.371928
                                                         1.388401      -0.761951
                                                         0.496955      -0.253695
                                                         0.162492      -0.035541

                          1       4    4px              10.389228      -0.565392
                                                         3.849621      -0.038231
                                                         1.388401      -0.382373
                                                         0.496955       0.179070
                                                         0.162492       0.122714
                          1       4    4py              10.389228      -0.565392
                                                         3.849621      -0.038231
                                                         1.388401      -0.382373
                                                         0.496955       0.179070
                                                         0.162492       0.122714
                          1       4    4pz              10.389228      -0.565392
                                                         3.849621      -0.038231
                                                         1.388401      -0.382373
                                                         0.496955       0.179070
                                                         0.162492       0.122714

                          1       5    4dx2             10.389228       1.867377
                                                         3.849621       0.670994
                                                         1.388401       1.353441
                                                         0.496955       0.273538
                                                         0.162492       0.006620
                          1       5    4dxy             10.389228       3.234392
                                                         3.849621       1.162195
                                                         1.388401       2.344229
                                                         0.496955       0.473781
                                                         0.162492       0.011466
                          1       5    4dxz             10.389228       3.234392
                                                         3.849621       1.162195
                                                         1.388401       2.344229
                                                         0.496955       0.473781
                                                         0.162492       0.011466
                          1       5    4dy2             10.389228       1.867377
                                                         3.849621       0.670994
                                                         1.388401       1.353441
                                                         0.496955       0.273538
                                                         0.162492       0.006620
                          1       5    4dyz             10.389228       3.234392
                                                         3.849621       1.162195
                                                         1.388401       2.344229
                                                         0.496955       0.473781
                                                         0.162492       0.011466
                          1       5    4dz2             10.389228       1.867377
                                                         3.849621       0.670994
                                                         1.388401       1.353441
                                                         0.496955       0.273538
                                                         0.162492       0.006620

       Atomic covalent radius [Angstrom]:                                  0.730

       Atomic van der Waals radius [Angstrom]:                             1.520

     GTH Potential information for                                    GTH-PBE-q6

       Description:                       Goedecker-Teter-Hutter pseudopotential
                                           Goedecker et al., PRB 54, 1703 (1996)
                                          Hartwigsen et al., PRB 58, 3641 (1998)
                                                      Krack, TCA 114, 145 (2005)

       Gaussian exponent of the core charge distribution:               8.360253
       Electronic configuration (s p d ...):                               2   4

       Parameters of the local part of the GTH pseudopotential:

                          rloc        C1          C2          C3          C4
                        0.244554  -16.667215    2.487311

       Parameters of the non-local part of the GTH pseudopotential:

                   l      r(l)      h(i,j,l)

                   0    0.220956   18.337458
                   1    0.211332


 MOLECULE KIND INFORMATION


 All atoms are their own molecule, skipping detailed information


 TOTAL NUMBERS AND MAXIMUM NUMBERS

  Total number of            - Atomic kinds:                                   4
                             - Atoms:                                        168
                             - Shell sets:                                   168
                             - Shells:                                       768
                             - Primitive Cartesian functions:                828
                             - Cartesian basis functions:                   2028
                             - Spherical basis functions:                   1896

  Maximum angular momentum of- Orbital basis functions:                        2
                             - Local part of the GTH pseudopotential:          2
                             - Non-local part of the GTH pseudopotential:      0


 MODULE QUICKSTEP:  ATOMIC COORDINATES IN angstrom

 Atom  Kind  Element       X           Y           Z          Z(eff)       Mass
    1   1 B    5      12.706445   12.527405    7.233049       3.0000     10.8110
    2   1 B    5      12.706445   15.082441   11.659054       3.0000     10.8110
    3   1 B    5      12.706446   17.637952    7.232987       3.0000     10.8110
    4   1 B    5       9.076033   12.527405    7.233049       3.0000     10.8110
    5   1 B    5       9.076032   15.082441   11.659053       3.0000     10.8110
    6   1 B    5       9.076032   17.637953    7.232987       3.0000     10.8110
    7   1 B    5       5.445619   12.527404    7.233049       3.0000     10.8110
    8   1 B    5       5.445619   15.082441   11.659053       3.0000     10.8110
    9   1 B    5       5.445619   17.637953    7.232987       3.0000     10.8110
   10   1 B    5       1.815206   12.527405    7.233049       3.0000     10.8110
   11   1 B    5       1.815207   15.082441   11.659053       3.0000     10.8110
   12   1 B    5       1.815206   17.637953    7.232987       3.0000     10.8110
   13   2 H    1      12.706445    5.037603    1.822668       1.0000      1.0079
   14   2 H    1      12.706445    6.600709    7.789065       1.0000      1.0079
   15   2 H    1      12.706445   10.985722    3.451687       1.0000      1.0079
   16   2 H    1      12.706445    4.097140    3.451540       1.0000      1.0079
   17   2 H    1      12.706445   10.045802    1.822272       1.0000      1.0079
   18   2 H    1      12.706445    8.481779    7.788440       1.0000      1.0079
   19   2 H    1      12.706445   15.082475    6.223941       1.0000      1.0079
   20   2 H    1      12.706445   12.930922    9.950384       1.0000      1.0079
   21   2 H    1      12.706445   17.234089    9.950596       1.0000      1.0079
   22   2 H    1       9.076032    5.037603    1.822668       1.0000      1.0079
   23   2 H    1       9.076032    6.600709    7.789064       1.0000      1.0079
   24   2 H    1       9.076032   10.985721    3.451688       1.0000      1.0079
   25   2 H    1       9.076032    4.097140    3.451541       1.0000      1.0079
   26   2 H    1       9.076032   10.045802    1.822272       1.0000      1.0079
   27   2 H    1       9.076032    8.481780    7.788439       1.0000      1.0079
   28   2 H    1       9.076032   15.082475    6.223942       1.0000      1.0079
   29   2 H    1       9.076032   12.930922    9.950383       1.0000      1.0079
   30   2 H    1       9.076032   17.234088    9.950596       1.0000      1.0079
   31   2 H    1       5.445619    5.037603    1.822668       1.0000      1.0079
   32   2 H    1       5.445619    6.600708    7.789064       1.0000      1.0079
   33   2 H    1       5.445619   10.985721    3.451688       1.0000      1.0079
   34   2 H    1       5.445619    4.097140    3.451541       1.0000      1.0079
   35   2 H    1       5.445619   10.045802    1.822272       1.0000      1.0079
   36   2 H    1       5.445619    8.481780    7.788439       1.0000      1.0079
   37   2 H    1       5.445619   15.082475    6.223942       1.0000      1.0079
   38   2 H    1       5.445619   12.930922    9.950384       1.0000      1.0079
   39   2 H    1       5.445619   17.234088    9.950596       1.0000      1.0079
   40   2 H    1       1.815206    5.037602    1.822669       1.0000      1.0079
   41   2 H    1       1.815207    6.600709    7.789064       1.0000      1.0079
   42   2 H    1       1.815207   10.985722    3.451687       1.0000      1.0079
   43   2 H    1       1.815206    4.097140    3.451541       1.0000      1.0079
   44   2 H    1       1.815207   10.045803    1.822272       1.0000      1.0079
   45   2 H    1       1.815206    8.481779    7.788440       1.0000      1.0079
   46   2 H    1       1.815206   15.082475    6.223942       1.0000      1.0079
   47   2 H    1       1.815206   12.930922    9.950384       1.0000      1.0079
   48   2 H    1       1.815207   17.234088    9.950596       1.0000      1.0079
   49   3 C    6      12.706446   13.856189    8.000263       4.0000     12.0107
   50   3 C    6      12.706446   15.082510   10.124531       4.0000     12.0107
   51   3 C    6      12.706445   16.309017    8.000257       4.0000     12.0107
   52   3 C    6      12.706445    6.826480    3.098588       4.0000     12.0107
   53   3 C    6      12.706446    6.841799    0.698853       4.0000     12.0107
   54   3 C    6      12.706445    6.120696    1.866107       4.0000     12.0107
   55   3 C    6      12.706445    6.811554    5.601479       4.0000     12.0107
   56   3 C    6      12.706445    4.725590    6.787726       4.0000     12.0107
   57   3 C    6      12.706445    6.097077    6.829082       4.0000     12.0107
   58   3 C    6      12.706445    8.986340    4.362789       4.0000     12.0107
   59   3 C    6      12.706446   11.056680    5.575976       4.0000     12.0107
   60   3 C    6      12.706445   10.406478    4.367892       4.0000     12.0107
   61   3 C    6      12.706446    6.096519    4.362867       4.0000     12.0107
   62   3 C    6      12.706446    4.025891    5.575912       4.0000     12.0107
   63   3 C    6      12.706445    4.676269    4.367829       4.0000     12.0107
   64   3 C    6      12.706446    8.256666    3.098585       4.0000     12.0107
   65   3 C    6      12.706445    8.241107    0.698957       4.0000     12.0107
   66   3 C    6      12.706445    8.962618    1.866057       4.0000     12.0107
   67   3 C    6      12.706445    8.271222    5.601359       4.0000     12.0107
   68   3 C    6      12.706445   10.356990    6.787808       4.0000     12.0107
   69   3 C    6      12.706446    8.985655    6.828714       4.0000     12.0107
   70   3 C    6      12.706445   13.874277    9.405927       4.0000     12.0107
   71   3 C    6      12.706445   16.290830    9.405972       4.0000     12.0107
   72   3 C    6      12.706445   15.082601    7.313142       4.0000     12.0107
   73   3 C    6       9.076032   13.856189    8.000262       4.0000     12.0107
   74   3 C    6       9.076033   15.082510   10.124531       4.0000     12.0107
   75   3 C    6       9.076033   16.309017    8.000257       4.0000     12.0107
   76   3 C    6       9.076033    6.826480    3.098588       4.0000     12.0107
   77   3 C    6       9.076033    6.841799    0.698853       4.0000     12.0107
   78   3 C    6       9.076032    6.120697    1.866107       4.0000     12.0107
   79   3 C    6       9.076032    6.811555    5.601479       4.0000     12.0107
   80   3 C    6       9.076032    4.725591    6.787726       4.0000     12.0107
   81   3 C    6       9.076032    6.097077    6.829081       4.0000     12.0107
   82   3 C    6       9.076032    8.986340    4.362789       4.0000     12.0107
   83   3 C    6       9.076033   11.056680    5.575976       4.0000     12.0107
   84   3 C    6       9.076032   10.406477    4.367893       4.0000     12.0107
   85   3 C    6       9.076032    6.096519    4.362868       4.0000     12.0107
   86   3 C    6       9.076033    4.025891    5.575912       4.0000     12.0107
   87   3 C    6       9.076032    4.676269    4.367830       4.0000     12.0107
   88   3 C    6       9.076032    8.256666    3.098585       4.0000     12.0107
   89   3 C    6       9.076032    8.241106    0.698957       4.0000     12.0107
   90   3 C    6       9.076032    8.962617    1.866057       4.0000     12.0107
   91   3 C    6       9.076032    8.271222    5.601359       4.0000     12.0107
   92   3 C    6       9.076032   10.356990    6.787808       4.0000     12.0107
   93   3 C    6       9.076032    8.985656    6.828713       4.0000     12.0107
   94   3 C    6       9.076032   13.874277    9.405926       4.0000     12.0107
   95   3 C    6       9.076032   16.290829    9.405971       4.0000     12.0107
   96   3 C    6       9.076032   15.082601    7.313143       4.0000     12.0107
   97   3 C    6       5.445619   13.856188    8.000262       4.0000     12.0107
   98   3 C    6       5.445619   15.082510   10.124530       4.0000     12.0107
   99   3 C    6       5.445619   16.309017    8.000257       4.0000     12.0107
  100   3 C    6       5.445620    6.826480    3.098589       4.0000     12.0107
  101   3 C    6       5.445619    6.841799    0.698853       4.0000     12.0107
  102   3 C    6       5.445619    6.120696    1.866107       4.0000     12.0107
  103   3 C    6       5.445620    6.811554    5.601479       4.0000     12.0107
  104   3 C    6       5.445619    4.725590    6.787725       4.0000     12.0107
  105   3 C    6       5.445620    6.097077    6.829081       4.0000     12.0107
  106   3 C    6       5.445620    8.986340    4.362789       4.0000     12.0107
  107   3 C    6       5.445619   11.056680    5.575976       4.0000     12.0107
  108   3 C    6       5.445620   10.406477    4.367893       4.0000     12.0107
  109   3 C    6       5.445619    6.096519    4.362868       4.0000     12.0107
  110   3 C    6       5.445620    4.025891    5.575912       4.0000     12.0107
  111   3 C    6       5.445620    4.676269    4.367830       4.0000     12.0107
  112   3 C    6       5.445619    8.256666    3.098585       4.0000     12.0107
  113   3 C    6       5.445619    8.241107    0.698958       4.0000     12.0107
  114   3 C    6       5.445620    8.962617    1.866057       4.0000     12.0107
  115   3 C    6       5.445619    8.271222    5.601359       4.0000     12.0107
  116   3 C    6       5.445620   10.356990    6.787808       4.0000     12.0107
  117   3 C    6       5.445619    8.985656    6.828713       4.0000     12.0107
  118   3 C    6       5.445620   13.874277    9.405926       4.0000     12.0107
  119   3 C    6       5.445620   16.290830    9.405971       4.0000     12.0107
  120   3 C    6       5.445620   15.082601    7.313143       4.0000     12.0107
  121   3 C    6       1.815207   13.856189    8.000262       4.0000     12.0107
  122   3 C    6       1.815206   15.082511   10.124530       4.0000     12.0107
  123   3 C    6       1.815207   16.309018    8.000257       4.0000     12.0107
  124   3 C    6       1.815207    6.826479    3.098589       4.0000     12.0107
  125   3 C    6       1.815206    6.841799    0.698853       4.0000     12.0107
  126   3 C    6       1.815207    6.120696    1.866107       4.0000     12.0107
  127   3 C    6       1.815207    6.811554    5.601479       4.0000     12.0107
  128   3 C    6       1.815207    4.725590    6.787726       4.0000     12.0107
  129   3 C    6       1.815206    6.097077    6.829082       4.0000     12.0107
  130   3 C    6       1.815207    8.986340    4.362789       4.0000     12.0107
  131   3 C    6       1.815206   11.056680    5.575976       4.0000     12.0107
  132   3 C    6       1.815207   10.406478    4.367892       4.0000     12.0107
  133   3 C    6       1.815206    6.096519    4.362868       4.0000     12.0107
  134   3 C    6       1.815206    4.025891    5.575913       4.0000     12.0107
  135   3 C    6       1.815207    4.676269    4.367830       4.0000     12.0107
  136   3 C    6       1.815206    8.256666    3.098585       4.0000     12.0107
  137   3 C    6       1.815207    8.241107    0.698957       4.0000     12.0107
  138   3 C    6       1.815206    8.962618    1.866057       4.0000     12.0107
  139   3 C    6       1.815206    8.271222    5.601359       4.0000     12.0107
  140   3 C    6       1.815207   10.356990    6.787808       4.0000     12.0107
  141   3 C    6       1.815207    8.985656    6.828714       4.0000     12.0107
  142   3 C    6       1.815207   13.874277    9.405926       4.0000     12.0107
  143   3 C    6       1.815207   16.290830    9.405971       4.0000     12.0107
  144   3 C    6       1.815206   15.082602    7.313143       4.0000     12.0107
  145   4 O    8      12.706445   13.923149   12.453704       6.0000     15.9994
  146   4 O    8      12.706445   18.905790    7.839569       6.0000     15.9994
  147   4 O    8      12.706445   12.418974    5.831777       6.0000     15.9994
  148   4 O    8      12.706445   17.746545    5.831689       6.0000     15.9994
  149   4 O    8      12.706446   16.241636   12.453789       6.0000     15.9994
  150   4 O    8      12.706446   11.259620    7.839727       6.0000     15.9994
  151   4 O    8       9.076032   13.923149   12.453704       6.0000     15.9994
  152   4 O    8       9.076032   18.905791    7.839568       6.0000     15.9994
  153   4 O    8       9.076032   12.418974    5.831777       6.0000     15.9994
  154   4 O    8       9.076032   17.746546    5.831689       6.0000     15.9994
  155   4 O    8       9.076032   16.241636   12.453789       6.0000     15.9994
  156   4 O    8       9.076032   11.259620    7.839727       6.0000     15.9994
  157   4 O    8       5.445620   13.923149   12.453704       6.0000     15.9994
  158   4 O    8       5.445620   18.905791    7.839568       6.0000     15.9994
  159   4 O    8       5.445620   12.418974    5.831777       6.0000     15.9994
  160   4 O    8       5.445620   17.746545    5.831689       6.0000     15.9994
  161   4 O    8       5.445620   16.241636   12.453789       6.0000     15.9994
  162   4 O    8       5.445619   11.259619    7.839727       6.0000     15.9994
  163   4 O    8       1.815206   13.923149   12.453704       6.0000     15.9994
  164   4 O    8       1.815207   18.905791    7.839569       6.0000     15.9994
  165   4 O    8       1.815207   12.418974    5.831777       6.0000     15.9994
  166   4 O    8       1.815207   17.746545    5.831689       6.0000     15.9994
  167   4 O    8       1.815206   16.241636   12.453788       6.0000     15.9994
  168   4 O    8       1.815207   11.259620    7.839727       6.0000     15.9994




 SCF PARAMETERS         Density guess:                                    ATOMIC
                        --------------------------------------------------------
                        max_scf:                                             300
                        max_scf_history:                                       0
                        max_diis:                                              4
                        --------------------------------------------------------
                        eps_scf:                                        1.00E-06
                        eps_scf_history:                                0.00E+00
                        eps_diis:                                       1.00E-01
                        eps_eigval:                                     1.00E-05
                        --------------------------------------------------------
                        level_shift [a.u.]:                                 0.00
                        added MOs                                        60    0
                        --------------------------------------------------------
                        Mixing method:                            BROYDEN_MIXING
                                                charge density mixing in g-space
                        --------------------------------------------------------
                        No outer SCF

 PW_GRID| Information for grid number                                          1
 PW_GRID| Grid distributed over                                    24 processors
 PW_GRID| Real space group dimensions                                    24    1
 PW_GRID| the grid is blocked:                                                NO
 PW_GRID| Cutoff [a.u.]                                                    300.0
 PW_GRID| spherical cutoff:                                                   NO
 PW_GRID|   Bounds   1           -112     112                Points:         225
 PW_GRID|   Bounds   2           -108     107                Points:         216
 PW_GRID|   Bounds   3           -112     112                Points:         225
 PW_GRID| Volume element (a.u.^3)  0.1766E-02     Volume (a.u.^3)     19307.8695
 PW_GRID| Grid span                                                    FULLSPACE
 PW_GRID|   Distribution                         Average         Max         Min
 PW_GRID|   G-Vectors                           455625.0      455625      455625
 PW_GRID|   G-Rays                                2025.0        2025        2025
 PW_GRID|   Real Space Points                   455625.0      486000      437400

 PW_GRID| Information for grid number                                          2
 PW_GRID| Number of the reference grid                                         1
 PW_GRID| Grid distributed over                                    24 processors
 PW_GRID| Real space group dimensions                                    24    1
 PW_GRID| the grid is blocked:                                                NO
 PW_GRID| Cutoff [a.u.]                                                    100.0
 PW_GRID| spherical cutoff:                                                   NO
 PW_GRID|   Bounds   1            -67      67                Points:         135
 PW_GRID|   Bounds   2            -62      62                Points:         125
 PW_GRID|   Bounds   3            -67      67                Points:         135
 PW_GRID| Volume element (a.u.^3)  0.8475E-02     Volume (a.u.^3)     19307.8695
 PW_GRID| Grid span                                                    FULLSPACE
 PW_GRID|   Distribution                         Average         Max         Min
 PW_GRID|   G-Vectors                            94921.9       95445       94500
 PW_GRID|   G-Rays                                 703.1         707         700
 PW_GRID|   Real Space Points                    94921.9      101250       84375

 PW_GRID| Information for grid number                                          3
 PW_GRID| Number of the reference grid                                         1
 PW_GRID| Grid distributed over                                    24 processors
 PW_GRID| Real space group dimensions                                    24    1
 PW_GRID| the grid is blocked:                                                NO
 PW_GRID| Cutoff [a.u.]                                                     33.3
 PW_GRID| spherical cutoff:                                                   NO
 PW_GRID|   Bounds   1            -37      37                Points:          75
 PW_GRID|   Bounds   2            -36      35                Points:          72
 PW_GRID|   Bounds   3            -37      37                Points:          75
 PW_GRID| Volume element (a.u.^3)  0.4767E-01     Volume (a.u.^3)     19307.8695
 PW_GRID| Grid span                                                    FULLSPACE
 PW_GRID|   Distribution                         Average         Max         Min
 PW_GRID|   G-Vectors                            16875.0       17100       16725
 PW_GRID|   G-Rays                                 225.0         228         223
 PW_GRID|   Real Space Points                    16875.0       21600       16200

 PW_GRID| Information for grid number                                          4
 PW_GRID| Number of the reference grid                                         1
 PW_GRID| Grid distributed over                                    24 processors
 PW_GRID| Real space group dimensions                                    24    1
 PW_GRID| the grid is blocked:                                                NO
 PW_GRID| Cutoff [a.u.]                                                     11.1
 PW_GRID| spherical cutoff:                                                   NO
 PW_GRID|   Bounds   1            -22      22                Points:          45
 PW_GRID|   Bounds   2            -22      22                Points:          45
 PW_GRID|   Bounds   3            -22      22                Points:          45
 PW_GRID| Volume element (a.u.^3)  0.2119         Volume (a.u.^3)     19307.8695
 PW_GRID| Grid span                                                    FULLSPACE
 PW_GRID|   Distribution                         Average         Max         Min
 PW_GRID|   G-Vectors                             3796.9        3870        3735
 PW_GRID|   G-Rays                                  84.4          86          83
 PW_GRID|   Real Space Points                     3796.9        4050        2025

 PW_GRID| Information for grid number                                          5
 PW_GRID| Number of the reference grid                                         1
 PW_GRID| Grid distributed over                                    24 processors
 PW_GRID| Real space group dimensions                                    24    1
 PW_GRID| the grid is blocked:                                                NO
 PW_GRID| Cutoff [a.u.]                                                      3.7
 PW_GRID| spherical cutoff:                                                   NO
 PW_GRID|   Bounds   1            -12      12                Points:          25
 PW_GRID|   Bounds   2            -12      11                Points:          24
 PW_GRID|   Bounds   3            -12      12                Points:          25
 PW_GRID| Volume element (a.u.^3)   1.287         Volume (a.u.^3)     19307.8695
 PW_GRID| Grid span                                                    FULLSPACE
 PW_GRID|   Distribution                         Average         Max         Min
 PW_GRID|   G-Vectors                              625.0         725         550
 PW_GRID|   G-Rays                                  25.0          29          22
 PW_GRID|   Real Space Points                      625.0        1200         600

 POISSON| Solver                                                        PERIODIC
 POISSON| Periodicity                                                        XYZ

 RS_GRID| Information for grid number                                          1
 RS_GRID|   Bounds   1           -112     112                Points:         225
 RS_GRID|   Bounds   2           -108     107                Points:         216
 RS_GRID|   Bounds   3           -112     112                Points:         225
 RS_GRID| Real space distribution over                                  4 groups
 RS_GRID| Real space distribution along direction                              1
 RS_GRID| Border size                                                         39
 RS_GRID| Real space distribution over                                  6 groups
 RS_GRID| Real space distribution along direction                              3
 RS_GRID| Border size                                                         39
 RS_GRID|   Distribution                         Average         Max         Min
 RS_GRID|   Planes                                 134.2         135         134
 RS_GRID|   Distribution                         Average         Max         Min
 RS_GRID|   Planes                                 115.5         116         115

 RS_GRID| Information for grid number                                          2
 RS_GRID|   Bounds   1            -67      67                Points:         135
 RS_GRID|   Bounds   2            -62      62                Points:         125
 RS_GRID|   Bounds   3            -67      67                Points:         135
 RS_GRID| Real space fully replicated
 RS_GRID| Group size                                                           1

 RS_GRID| Information for grid number                                          3
 RS_GRID|   Bounds   1            -37      37                Points:          75
 RS_GRID|   Bounds   2            -36      35                Points:          72
 RS_GRID|   Bounds   3            -37      37                Points:          75
 RS_GRID| Real space fully replicated
 RS_GRID| Group size                                                           1

 RS_GRID| Information for grid number                                          4
 RS_GRID|   Bounds   1            -22      22                Points:          45
 RS_GRID|   Bounds   2            -22      22                Points:          45
 RS_GRID|   Bounds   3            -22      22                Points:          45
 RS_GRID| Real space fully replicated
 RS_GRID| Group size                                                           1

 RS_GRID| Information for grid number                                          5
 RS_GRID|   Bounds   1            -12      12                Points:          25
 RS_GRID|   Bounds   2            -12      11                Points:          24
 RS_GRID|   Bounds   3            -12      12                Points:          25
 RS_GRID| Real space fully replicated
 RS_GRID| Group size                                                           1

 KPOINTS| Number of kpoint groups                                              1
 KPOINTS| Size of each kpoint group                                           24
 KPOINTS| Number of kpoints per group                                          3

 Number of electrons:                                                        600
 Number of occupied orbitals:                                                300
 Number of molecular orbitals:                                               360

 Number of orbital functions:                                               1896
 Number of independent orbital functions:                                   1896

 Extrapolation method: initial_guess

 Atomic guess: The first density matrix is obtained in terms of atomic orbitals
               and electronic configurations assigned to each atomic kind

 Guess for atomic kind: B

 Electronic structure
    Total number of core electrons                                          2.00
    Total number of valence electrons                                       3.00
    Total number of electrons                                               5.00
    Multiplicity                                                   not specified
    S   [  2.00] 2.00
    P      1.00


 *******************************************************************************
                  Iteration          Convergence                     Energy [au]
 *******************************************************************************
                          1        0.261043E-01                  -2.532462705163
                          2        0.617932E-02                  -2.533045549790
                          3        0.123027E-03                  -2.533092912858
                          4        0.133386E-07                  -2.533092929073

 Energy components [Hartree]           Total Energy ::           -2.533092929073
                                        Band Energy ::           -0.752056848402
                                     Kinetic Energy ::            1.380137437077
                                   Potential Energy ::           -3.913230366150
                                      Virial (-V/T) ::            2.835391795789
                                        Core Energy ::           -3.764482674793
                                          XC Energy ::           -0.789399655347
                                     Coulomb Energy ::            2.020789401067
                       Total Pseudopotential Energy ::           -5.173384917241
                       Local Pseudopotential Energy ::           -5.584719044471
                    Nonlocal Pseudopotential Energy ::            0.411334127230
                                        Confinement ::            0.287648053706

 Orbital energies  State     L     Occupation   Energy[a.u.]          Energy[eV]

                       1     0          2.000      -0.322199           -8.767476

                       1     1          1.000      -0.107659           -2.929556


 Total Electron Density at R=0:                                         0.000309

 Guess for atomic kind: H

 Electronic structure
    Total number of core electrons                                          0.00
    Total number of valence electrons                                       1.00
    Total number of electrons                                               1.00
    Multiplicity                                                   not specified
    S      1.00


 *******************************************************************************
                  Iteration          Convergence                     Energy [au]
 *******************************************************************************
                          1        0.250972E-02                  -0.375256815885
                          2        0.570752E-04                  -0.375258666164
                          3        0.832405E-09                  -0.375258667122

 Energy components [Hartree]           Total Energy ::           -0.375258667122
                                        Band Energy ::           -0.076317618391
                                     Kinetic Energy ::            0.771356566341
                                   Potential Energy ::           -1.146615233463
                                      Virial (-V/T) ::            1.486491829455
                                        Core Energy ::           -0.456090715790
                                          XC Energy ::           -0.314218627334
                                     Coulomb Energy ::            0.395050676003
                       Total Pseudopotential Energy ::           -1.238482237174
                       Local Pseudopotential Energy ::           -1.238482237174
                    Nonlocal Pseudopotential Energy ::            0.000000000000
                                        Confinement ::            0.110349550431

 Orbital energies  State     L     Occupation   Energy[a.u.]          Energy[eV]

                       1     0          1.000      -0.076318           -2.076708


 Total Electron Density at R=0:                                         0.425022

 Guess for atomic kind: C

 Electronic structure
    Total number of core electrons                                          2.00
    Total number of valence electrons                                       4.00
    Total number of electrons                                               6.00
    Multiplicity                                                   not specified
    S   [  2.00] 2.00
    P      2.00


 *******************************************************************************
                  Iteration          Convergence                     Energy [au]
 *******************************************************************************
                          1        0.261814E-01                  -5.246264729087
                          2        0.905236E-02                  -5.246529568708
                          3        0.681743E-04                  -5.246565167452
                          4        0.792827E-08                  -5.246565169473

 Energy components [Hartree]           Total Energy ::           -5.246565169473
                                        Band Energy ::           -1.058732595430
                                     Kinetic Energy ::            3.518928170589
                                   Potential Energy ::           -8.765493340062
                                      Virial (-V/T) ::            2.490955460053
                                        Core Energy ::           -8.429377169956
                                          XC Energy ::           -1.450183342358
                                     Coulomb Energy ::            4.632995342842
                       Total Pseudopotential Energy ::          -11.978048809389
                       Local Pseudopotential Energy ::          -12.816738187351
                    Nonlocal Pseudopotential Energy ::            0.838689377962
                                        Confinement ::            0.297434688432

 Orbital energies  State     L     Occupation   Energy[a.u.]          Energy[eV]

                       1     0          2.000      -0.410911          -11.181458

                       1     1          2.000      -0.118455           -3.223332


 Total Electron Density at R=0:                                         0.001337

 Guess for atomic kind: O

 Electronic structure
    Total number of core electrons                                          2.00
    Total number of valence electrons                                       6.00
    Total number of electrons                                               8.00
    Multiplicity                                                   not specified
    S   [  2.00] 2.00
    P      4.00


 *******************************************************************************
                  Iteration          Convergence                     Energy [au]
 *******************************************************************************
                          1        0.702811                     -15.577904332270
                          2        0.612408                     -15.588447180504
                          3        0.955344E-02                 -15.655871208406
                          4        0.223754E-02                 -15.655885053552
                          5        0.157183E-02                 -15.655885461027
                          6        0.124953E-02                 -15.655885607150
                          7        0.312011E-06                 -15.655885858066

 Energy components [Hartree]           Total Energy ::          -15.655885858066
                                        Band Energy ::           -2.983128125584
                                     Kinetic Energy ::           11.754765134683
                                   Potential Energy ::          -27.410650992749
                                      Virial (-V/T) ::            2.331875684345
                                        Core Energy ::          -26.153522949071
                                          XC Energy ::           -3.157392363346
                                     Coulomb Energy ::           13.655029454351
                       Total Pseudopotential Energy ::          -37.943026860963
                       Local Pseudopotential Energy ::          -39.220419683052
                    Nonlocal Pseudopotential Energy ::            1.277392822089
                                        Confinement ::            0.347387772086

 Orbital energies  State     L     Occupation   Energy[a.u.]          Energy[eV]

                       1     0          2.000      -0.861522          -23.443215

                       1     1          4.000      -0.315021           -8.572154


 Total Electron Density at R=0:                                         0.000093
 Re-scaling the density matrix to get the right number of electrons
                  # Electrons              Trace(P)               Scaling factor
                          600               600.000                        1.000


 SCF WAVEFUNCTION OPTIMIZATION

  Step     Update method      Time    Convergence         Total energy    Change
  ------------------------------------------------------------------------------
     1 NoMix/Diag. 0.20E+00    4.5     1.41941677      -978.9754000027 -9.79E+02
     2 Broy./Diag. 0.20E+00    4.9     0.07186076      -928.1053404088  5.09E+01
     3 Broy./Diag. 0.20E+00    4.8     0.19209209      -956.9157274019 -2.88E+01
     4 Broy./Diag. 0.20E+00    4.9     0.02071072      -981.4115964270 -2.45E+01
     5 Broy./Diag. 0.20E+00    4.9     0.01671165      -983.6402544551 -2.23E+00
     6 Broy./Diag. 0.20E+00    5.1     0.00382292      -985.2309693602 -1.59E+00
     7 Broy./Diag. 0.20E+00    5.0     0.00803135      -985.7893434961 -5.58E-01
     8 Broy./Diag. 0.20E+00    5.0     0.00249378      -986.7824828087 -9.93E-01
     9 Broy./Diag. 0.20E+00    5.0     0.00358018      -986.9902450459 -2.08E-01
    10 Broy./Diag. 0.20E+00    5.1     0.00174965      -987.2870946587 -2.97E-01
    11 Broy./Diag. 0.20E+00    5.1     0.00161472      -987.3607667412 -7.37E-02
    12 Broy./Diag. 0.20E+00    5.1     0.00063685      -987.3525376084  8.23E-03
    13 Broy./Diag. 0.20E+00    5.2     0.00039845      -987.3148435402  3.77E-02
    14 Broy./Diag. 0.20E+00    5.1     0.00040177      -987.3481874267 -3.33E-02
    15 Broy./Diag. 0.20E+00    5.2     0.00020038      -987.3894624863 -4.13E-02
[...]
     165     O        4          6.185252                             -0.185252
     166     O        4          6.185350                             -0.185350
     167     O        4          6.185313                             -0.185313
     168     O        4          6.185126                             -0.185126
 # Total charge                            600.000000                 -0.000000

 !-----------------------------------------------------------------------------!

 *** WARNING in qs_scf_post_gpw.F:459 :: Print MO cubes not implemented ***
 *** for k-point calculations                                           ***


 *** WARNING in qs_scf_post_gpw.F:551 :: Localization and MO related ***
 *** output not implemented for k-point calculations!                ***


 KPOINTS| Band Structure Calculation
 KPOINTS| Number of k-point sets                                               7

 KPOINTS| Number of kpoint groups                                              1
 KPOINTS| Size of each kpoint group                                           24
 KPOINTS| Number of kpoints per group                                         11
 KPOINTS| Number of k-points in set    1                                      11
 KPOINTS| In units of b-vector [2pi/Bohr]
 KPOINTS| Special point     1       GAMMA     0.000000     0.000000     0.000000
 KPOINTS| Special point     2           X     0.500000     0.000000     0.000000
 KPOINTS| Time for k-point line                                           10.716

 KPOINTS| Number of kpoint groups                                              1
 KPOINTS| Size of each kpoint group                                           24
 KPOINTS| Number of kpoints per group                                         11
 KPOINTS| Number of k-points in set    2                                      11
 KPOINTS| In units of b-vector [2pi/Bohr]
 KPOINTS| Special point     1           Y     0.000000     0.500000     0.000000
 KPOINTS| Special point     2       GAMMA     0.000000     0.000000     0.000000
 KPOINTS| Time for k-point line                                           10.604

 KPOINTS| Number of kpoint groups                                              1
 KPOINTS| Size of each kpoint group                                           24
 KPOINTS| Number of kpoints per group                                         11
 KPOINTS| Number of k-points in set    3                                      11
 KPOINTS| In units of b-vector [2pi/Bohr]
 KPOINTS| Special point     1       GAMMA     0.000000     0.000000     0.000000
 KPOINTS| Special point     2           Z     0.000000     0.000000     0.500000
 KPOINTS| Time for k-point line                                           10.771

 KPOINTS| Number of kpoint groups                                              1
 KPOINTS| Size of each kpoint group                                           24
 KPOINTS| Number of kpoints per group                                         11
 KPOINTS| Number of k-points in set    4                                      11
 KPOINTS| In units of b-vector [2pi/Bohr]
 KPOINTS| Special point     1           R     0.500000     0.500000     0.500000
 KPOINTS| Special point     2       GAMMA     0.000000     0.000000     0.000000
 KPOINTS| Time for k-point line                                           10.829

 KPOINTS| Number of kpoint groups                                              1
 KPOINTS| Size of each kpoint group                                           24
 KPOINTS| Number of kpoints per group                                         11
 KPOINTS| Number of k-points in set    5                                      11
 KPOINTS| In units of b-vector [2pi/Bohr]
 KPOINTS| Special point     1       GAMMA     0.000000     0.000000     0.000000
 KPOINTS| Special point     2           T     0.000000     0.500000     0.500000
 KPOINTS| Time for k-point line                                           10.743

 KPOINTS| Number of kpoint groups                                              1
 KPOINTS| Size of each kpoint group                                           24
 KPOINTS| Number of kpoints per group                                         11
 KPOINTS| Number of k-points in set    6                                      11
 KPOINTS| In units of b-vector [2pi/Bohr]
 KPOINTS| Special point     1           U     0.500000     0.000000     0.500000
 KPOINTS| Special point     2       GAMMA     0.000000     0.000000     0.000000
 KPOINTS| Time for k-point line                                           10.842

 KPOINTS| Number of kpoint groups                                              1
 KPOINTS| Size of each kpoint group                                           24
 KPOINTS| Number of kpoints per group                                         11
 KPOINTS| Number of k-points in set    7                                      11
 KPOINTS| In units of b-vector [2pi/Bohr]
 KPOINTS| Special point     1       GAMMA     0.000000     0.000000     0.000000
 KPOINTS| Special point     2           V     0.500000     0.500000     0.000000
 KPOINTS| Time for k-point line                                           11.080

 ENERGY| Total FORCE_EVAL ( QS ) energy [a.u.]:             -987.356953967630261

 -------------------------------------------------------------------------------
 -                                                                             -
 -                                DBCSR STATISTICS                             -
 -                                                                             -
 -------------------------------------------------------------------------------
 COUNTER                                    TOTAL       BLAS       SMM       ACC
 flops inhomo. stacks                           0       0.0%      0.0%      0.0%
 flops total                         0.000000E+00       0.0%      0.0%      0.0%
 flops max/rank                      0.000000E+00       0.0%      0.0%      0.0%
 matmuls inhomo. stacks                         0       0.0%      0.0%      0.0%
 matmuls total                                  0       0.0%      0.0%      0.0%
 number of processed stacks                     0       0.0%      0.0%      0.0%
 average stack size                                     0.0       0.0       0.0
 marketing flops                     0.000000E+00
 -------------------------------------------------------------------------------
 -                                                                             -
 -                      DBCSR MESSAGE PASSING PERFORMANCE                      -
 -                                                                             -
 -------------------------------------------------------------------------------
 ROUTINE             CALLS      AVE VOLUME [Bytes]
 MP_Bcast                1                     12.
 MP_Allreduce         1856                      8.
 MP_Alltoall         14248                 638491.
 -------------------------------------------------------------------------------

 -------------------------------------------------------------------------------
 -                                                                             -
 -                                GRID STATISTICS                              -
 -                                                                             -
 -------------------------------------------------------------------------------
 LP    KERNEL             BACKEND                              COUNT     PERCENT
 4     collocate general  GPU                                2833460      30.27%
 4     integrate general  GPU                                2752504      29.41%
 3     collocate general  GPU                                1638280      17.50%
 3     integrate general  GPU                                1591472      17.00%
 2     collocate general  GPU                                 273840       2.93%
 2     integrate general  GPU                                 266016       2.84%
 0     collocate general  REF                                   4032       0.04%
 -------------------------------------------------------------------------------

 MEMORY| Estimated peak process memory [MiB]                                1119

 -------------------------------------------------------------------------------
 ----                             MULTIGRID INFO                            ----
 -------------------------------------------------------------------------------
 count for grid        1:         431124          cutoff [a.u.]          300.00
 count for grid        2:         268580          cutoff [a.u.]          100.00
 count for grid        3:         227748          cutoff [a.u.]           33.33
 count for grid        4:          84376          cutoff [a.u.]           11.11
 count for grid        5:            960          cutoff [a.u.]            3.70
 total gridlevel count  :        1012788

 -------------------------------------------------------------------------------
 -                                                                             -
 -                         MESSAGE PASSING PERFORMANCE                         -
 -                                                                             -
 -------------------------------------------------------------------------------

 ROUTINE             CALLS      AVE VOLUME [Bytes]
 MP_Group               13
 MP_Bcast             5677                 132021.
 MP_Allreduce         1846                    906.
 MP_Sync                 5
 MP_Alltoall           769               16174364.
 MP_ISendRecv         6348                 256200.
 MP_Wait             12068
 MP_ISend             7280                 414917.
 MP_IRecv             7280                 414996.
 MP_Recv              3078                 485376.
 -------------------------------------------------------------------------------


 -------------------------------------------------------------------------------
 -                                                                             -
 -                           R E F E R E N C E S                               -
 -                                                                             -
 -------------------------------------------------------------------------------
 
 CP2K version 9.1, the CP2K developers group (2021).
 CP2K is freely available from https://www.cp2k.org/ .

 Kuehne,Thomas D.; Iannuzzi,Marcella; Del Ben,Mauro;
 Rybkin,Vladimir V.; Seewald,Patrick; Stein,Frederick; Laino,Teodoro;
 Khaliullin,Rustam Z.; Schuett,Ole; Schiffmann,Florian; Golze,Dorothea;
 Wilhelm,Jan; Chulkov,Sergey; Bani-Hashemian,Mohammad Hossein;
 Weber,Valery; Borstnik,Urban; Taillefumier,Mathieu;
 Jakobovits,Alice Shoshana; Lazzaro,Alfio; Pabst,Hans; Mueller,Tiziano;
 Schade,Robert; Guidon,Manuel; Andermatt,Samuel; Holmberg,Nico;
 Schenter,Gregory K.; Hehn,Anna; Bussy,Augustin; Belleflamme,Fabian;
 Tabacchi,Gloria; Gloess,Andreas; Lass,Michael; Bethune,Iain;
 Mundy,Christopher J.; Plessl,Christian; Watkins,Matt;
 VandeVondele,Joost; Krack,Matthias; Hutter,Juerg. 
 The Journal of Chemical Physics, 152 (19), (2020). 
 CP2K: An electronic structure and molecular dynamics software package -
 Quickstep: Efficient and accurate electronic structure calculations.
 https://doi.org/10.1063/5.0007045

 Togo, Atsushi; Tanaka, Isao. arXiv, 1808.01590 (2018). 
 Spglib : a software library for crystal symmetry search.
 https://doi.org/xxx

 Goerigk, Lars; Hansen, Andreas; Bauer, Christoph; Ehrlich, Stephan;
 Najibi, Asim; Grimme, Stefan. , 19 (48), (2017). 
 A look at the density functional theory zoo with the advanced GMTKN55 database
 for general main group thermochemistry, kinetics and noncovalent interactions.
 https://doi.org/10.1039/C7CP04913G

 Schuett, Ole; Messmer, Peter; Hutter, Juerg; VandeVondele, Joost. 
 Electronic Structure Calculations on Graphics Processing Units, John
 Wiley & Sons, Ltd, 173-190 (2016). 
 GPU-Accelerated Sparse Matrix-Matrix Multiplication for
 Linear Scaling Density Functional Theory.
 https://doi.org/10.1002/9781118670712.ch8

 Borstnik, U; VandeVondele, J; Weber, V; Hutter, J. 
 PARALLEL COMPUTING, 40 (5-6), 47-58 (2014). 
 Sparse matrix multiplication: The distributed block-compressed sparse
 row library.
 https://doi.org/10.1016/j.parco.2014.03.012

 Hutter, J; Iannuzzi, M; Schiffmann, F; VandeVondele, J. 
 WIREs Comput Mol Sci., 4 (1), 15-25 (2014). 
 CP2K: atomistic simulations of condensed matter systems.
 https://doi.org/10.1002/wcms.1159

 Marek, A; Blum, V; Johanni, R; Havu, V; Lang, B; Auckenthaler, T;
 Heinecke, A; Bungartz, H; Lederer, H. 
 Journal of Physics: Condensed Matter, 26 (21), (2014). 
 The ELPA library: scalable parallel eigenvalue solutions for
 electronic structure
 theory and computational science.
 https://doi.org/10.1088/0953-8984/26/21/213201

 Grimme, S; Ehrlich, S; Goerigk, L. 
 JOURNAL OF COMPUTATIONAL CHEMISTRY, 32, 1456 (2011). 
 Effect of the damping function in dispersion corrected density functional theory.
 https://doi.org/10.1002/jcc.21759

 Grimme, S; Antony, J; Ehrlich, S; Krieg, H. 
 JOURNAL OF CHEMICAL PHYSICS, 132 (15), 154104 (2010). 
 A consistent and accurate ab initio parametrization of density
 functional dispersion correction (DFT-D) for the 94 elements H-Pu.
 https://doi.org/10.1063/1.3382344

 VandeVondele, J; Hutter, J. 
 JOURNAL OF CHEMICAL PHYSICS, 127 (11), 114105 (2007). 
 Gaussian basis sets for accurate calculations on molecular systems in
 gas and condensed phases.
 https://doi.org/10.1063/1.2770708

 Krack, M. 
 THEORETICAL CHEMISTRY ACCOUNTS, 114 (1-3), 145-152 (2005). 
 Pseudopotentials for H to Kr optimized for gradient-corrected
 exchange-correlation functionals.
 https://doi.org/10.1007/s00214-005-0655-y

 VandeVondele, J; Krack, M; Mohamed, F; Parrinello, M; Chassaing, T;
 Hutter, J. COMPUTER PHYSICS COMMUNICATIONS, 167 (2), 103-128 (2005). 
 QUICKSTEP: Fast and accurate density functional calculations using a
 mixed Gaussian and plane waves approach.
 https://doi.org/10.1016/j.cpc.2004.12.014

 Frigo, M; Johnson, SG. 
 PROCEEDINGS OF THE IEEE, 93 (2), 216-231 (2005). 
 The design and implementation of FFTW3.
 https://doi.org/10.1109/JPROC.2004.840301

 Hartwigsen, C; Goedecker, S; Hutter, J. 
 PHYSICAL REVIEW B, 58 (7), 3641-3662 (1998). 
 Relativistic separable dual-space Gaussian pseudopotentials from H to Rn.
 https://doi.org/10.1103/PhysRevB.58.3641

 Lippert, G; Hutter, J; Parrinello, M. 
 MOLECULAR PHYSICS, 92 (3), 477-487 (1997). 
 A hybrid Gaussian and plane wave density functional scheme.
 https://doi.org/10.1080/002689797170220

 Perdew, JP; Burke, K; Ernzerhof, M. 
 PHYSICAL REVIEW LETTERS, 77 (18), 3865-3868 (1996). 
 Generalized gradient approximation made simple.
 https://doi.org/10.1103/PhysRevLett.77.3865

 Goedecker, S; Teter, M; Hutter, J. 
 PHYSICAL REVIEW B, 54 (3), 1703-1710 (1996). 
 Separable dual-space Gaussian pseudopotentials.
 https://doi.org/10.1103/PhysRevB.54.1703


 -------------------------------------------------------------------------------
 -                                                                             -
 -                                T I M I N G                                  -
 -                                                                             -
 -------------------------------------------------------------------------------
 SUBROUTINE                       CALLS  ASD         SELF TIME        TOTAL TIME
                                MAXIMUM       AVERAGE  MAXIMUM  AVERAGE  MAXIMUM
 CP2K                                 1  1.0    0.087    0.099  251.975  251.976
 qs_energies                          1  2.0    0.003    0.050  251.197  251.212
 scf_env_do_scf                       1  3.0    0.003    0.003  174.073  174.079
 scf_env_do_scf_inner_loop           34  4.0    0.003    0.005  174.070  174.076
 do_general_diag_kp                  41  5.5    0.016    0.024  173.377  173.416
 cp_cfm_geeig                       179  5.7    0.005    0.007  154.900  155.112
 cp_cfm_heevd                       179  6.7  108.133  108.287  108.133  108.287
 qs_scf_new_mos_kp                   34  5.0    0.000    0.000   98.134   98.156
 qs_ks_update_qs_env                 34  5.0    0.000    0.000   49.986   49.988
 rebuild_ks_matrix                   34  6.0    0.000    0.000   49.510   49.513
 qs_ks_build_kohn_sham_matrix        34  7.0    0.006    0.007   49.510   49.512
 cp_cfm_triangular_multiply         537  6.7   33.593   33.741   33.593   33.741
 pw_transfer                        754  9.4    0.048    0.062   30.134   31.475
 fft_wrap_pw1pw2                    686 10.5    0.007    0.008   29.781   31.113
 fft_wrap_pw1pw2_300                410 11.5    0.002    0.003   27.522   28.834
 qs_vxc_create                       34  8.0    0.001    0.001   25.188   25.277
 xc_vxc_pw_create                    34  9.0    0.259    0.320   25.187   25.277
 sum_up_and_integrate                34  8.0    0.073    0.079   20.397   20.405
 integrate_v_rspace                  34  9.0    0.001    0.001   20.324   20.331
 pw_cuda_c1dr3d_3d_ps               374 12.9    0.008    0.011   17.247   17.490
 xc_rho_set_and_dset_create          34 10.0    0.104    0.128   14.864   15.877
 qs_rho_update_rho                   35  5.0    0.000    0.000   14.982   14.994
 calculate_rho_elec                  35  6.0    0.063    0.067   14.982   14.993
 pw_cuda_r3dc1d_3d_ps               312 12.0    0.006    0.007   12.525   13.956
 grid_integrate_task_list            34 10.0   10.873   11.791   10.873   11.791
 density_rs2pw                       35  7.0    0.002    0.002    9.857   10.379
 rs_pw_transfer                     346  9.5    0.004    0.004    8.438    9.028
 gspace_mixing                       33  5.0    0.060    0.064    8.228    8.228
 copy_dbcsr_to_fm                   770  5.7    0.019    0.020    7.220    8.026
 xc_functional_eval                  34 11.0    0.000    0.000    6.781    7.791
 pbe_lda_eval                        34 12.0    6.780    7.791    6.780    7.791
 potential_pw2rs                     34 10.0    0.007    0.008    7.726    7.734
 cp_cfm_triangular_invert           179  6.7    7.245    7.318    7.245    7.318
 mp_alltoall_z22v                   686 14.5    5.262    7.251    5.262    7.251
 pw_cuda_sf                         374 13.9    6.901    6.981    6.901    6.981
 mp_alltoall_d11v                  7449  8.2    5.429    6.962    5.429    6.962
 cp_cfm_cholesky_decompose          179  6.7    5.896    6.254    5.896    6.254
 broyden_mixing                      33  6.0    5.802    5.852    5.854    5.893
 pw_cuda_ffc                        374 13.9    5.192    5.549    5.192    5.549
 dbcsr_desymmetrize_deep           1486  6.2    0.941    1.019    4.816    5.531
 pw_cuda_fg                         312 13.0    5.450    5.524    5.450    5.524
 dbcsr_complete_redistribute        974  7.2    1.384    1.457    4.958    5.473
 x_to_yz                            374 13.9    2.926    3.047    5.140    5.462
 yz_to_x                            312 13.0    0.813    0.918    3.861    5.408
 grid_collocate_task_list            35  7.0    4.879    5.317    4.879    5.317
 -------------------------------------------------------------------------------

 The number of warnings for this run is : 2
 
 -------------------------------------------------------------------------------
  **** **** ******  **  PROGRAM ENDED AT                 2022-04-05 11:16:19.316
 ***** ** ***  *** **   PROGRAM RAN ON                                  nid02103
 **    ****   ******    PROGRAM RAN BY                                  bbuenomo
 ***** **    ** ** **   PROGRAM PROCESS ID                                 20453
  **** **  *******  **  PROGRAM STOPPED IN /scratch/snx3000/bbuenomo/aiida-pc/63
                                           /f5/9385-7967-4d18-b058-0568b0a68b23
